 Output coordinates in angstroms (scale by  1.889725989 to convert to a.u.)

  No.       Tag          Charge          X              Y              Z
 ---- ---------------- ---------- -------------- -------------- --------------
    1 C                    6.0000     0.00000000     0.00000000     0.60808000
    2 C                    6.0000     0.00000000     0.00000000    -0.60808000
    3 H                    1.0000     0.00000000     0.00000000    -1.67399000
    4 H                    1.0000     0.00000000     0.00000000     1.67399000

         Total DFT energy =      -77.348937021499

                       DFT Final Molecular Orbital Analysis
                       ------------------------------------

 Vector    1  Occ=2.000000D+00  E=-1.002578D+01  Symmetry=a1g

 Vector    2  Occ=2.000000D+00  E=-1.002391D+01  Symmetry=a2u

 Vector    3  Occ=2.000000D+00  E=-7.023306D-01  Symmetry=a1g

 Vector    4  Occ=2.000000D+00  E=-5.356234D-01  Symmetry=a2u

 Vector    5  Occ=2.000000D+00  E=-4.597883D-01  Symmetry=a1g

 Vector    6  Occ=2.000000D+00  E=-2.650842D-01  Symmetry=eu

 Vector    7  Occ=2.000000D+00  E=-2.650842D-01  Symmetry=eu

 Vector    8  Occ=0.000000D+00  E=-1.085755D-02  Symmetry=a1g

 Vector    9  Occ=0.000000D+00  E=-1.048462D-02  Symmetry=eg

 Vector   10  Occ=0.000000D+00  E=-1.048462D-02  Symmetry=eg

 Vector   11  Occ=0.000000D+00  E=-1.876484D-03  Symmetry=a2u

 Vector   12  Occ=0.000000D+00  E= 5.308082D-02  Symmetry=eu

 Vector   13  Occ=0.000000D+00  E= 5.308082D-02  Symmetry=eu

 Vector   14  Occ=0.000000D+00  E= 5.580370D-02  Symmetry=a1g

 Vector   15  Occ=0.000000D+00  E= 1.073863D-01  Symmetry=a2u

 Vector   16  Occ=0.000000D+00  E= 1.076622D-01  Symmetry=a1g

 Vector   17  Occ=0.000000D+00  E= 1.110405D-01  Symmetry=eg

 Vector   18  Occ=0.000000D+00  E= 1.110405D-01  Symmetry=eg

 Vector   19  Occ=0.000000D+00  E= 1.315228D-01  Symmetry=a2u

 Vector   20  Occ=0.000000D+00  E= 2.250038D-01  Symmetry=a1g

 Vector   21  Occ=0.000000D+00  E= 2.994317D-01  Symmetry=b1g

 Vector   22  Occ=0.000000D+00  E= 2.994320D-01  Symmetry=b2g

 Vector   23  Occ=0.000000D+00  E= 3.011883D-01  Symmetry=a2u

 Vector   24  Occ=0.000000D+00  E= 3.206022D-01  Symmetry=a1g

 Vector   25  Occ=0.000000D+00  E= 3.528010D-01  Symmetry=eu

 Vector   26  Occ=0.000000D+00  E= 3.528010D-01  Symmetry=eu

 Vector   27  Occ=0.000000D+00  E= 4.698087D-01  Symmetry=a2u

 Vector   28  Occ=0.000000D+00  E= 4.753768D-01  Symmetry=b1u

 Vector   29  Occ=0.000000D+00  E= 4.753776D-01  Symmetry=b2u

 Vector   30  Occ=0.000000D+00  E= 4.927565D-01  Symmetry=eg

 Vector   31  Occ=0.000000D+00  E= 4.927565D-01  Symmetry=eg

 Vector   32  Occ=0.000000D+00  E= 5.018523D-01  Symmetry=eu

     Multipole analysis of the density
     ---------------------------------

     L   x y z        total         alpha         beta         nuclear
     -   - - -        -----         -----         ----         -------
     0   0 0 0     -0.000000     -7.000000     -7.000000     14.000000

     1   1 0 0      0.000000      0.000000      0.000000      0.000000
     1   0 1 0      0.000000      0.000000      0.000000      0.000000
     1   0 0 1      0.000000      0.000000      0.000000      0.000000

     2   2 0 0    -10.272916     -5.136458     -5.136458      0.000000
     2   1 1 0      0.000000      0.000000      0.000000      0.000000
     2   1 0 1      0.000000      0.000000      0.000000      0.000000
     2   0 2 0    -10.272916     -5.136458     -5.136458      0.000000
     2   0 1 1      0.000000      0.000000      0.000000      0.000000

 Total times  cpu:        3.8s     wall:        4.1s
