 Output coordinates in angstroms (scale by  1.889725989 to convert to a.u.)

  No.       Tag          Charge          X              Y              Z
 ---- ---------------- ---------- -------------- -------------- --------------
    1 C                    6.0000    -0.61597000     0.00000000    -0.07514333
    2 H                    1.0000     0.00000000     0.00000000     1.04194667
    3 C                    6.0000     0.61597000     0.00000000    -0.07514333
    4 H                    1.0000    -1.69720000     0.00000000    -0.07011333
    5 H                    1.0000     1.69720000     0.00000000    -0.07011333

         Total DFT energy =      -77.606872332985

                       DFT Final Molecular Orbital Analysis
                       ------------------------------------

 Vector    1  Occ=2.000000D+00  E=-1.038148D+01  Symmetry=a1

 Vector    2  Occ=2.000000D+00  E=-1.037984D+01  Symmetry=b1

 Vector    3  Occ=2.000000D+00  E=-1.098173D+00  Symmetry=a1

 Vector    4  Occ=2.000000D+00  E=-8.367349D-01  Symmetry=b1

 Vector    5  Occ=2.000000D+00  E=-7.717772D-01  Symmetry=a1

 Vector    6  Occ=2.000000D+00  E=-7.008833D-01  Symmetry=a1

 Vector    7  Occ=2.000000D+00  E=-5.898859D-01  Symmetry=b2

 Vector    8  Occ=0.000000D+00  E=-3.343014D-01  Symmetry=b1

 Vector    9  Occ=0.000000D+00  E=-3.047502D-01  Symmetry=a2

 Vector   10  Occ=0.000000D+00  E=-2.451721D-01  Symmetry=a1

 Vector   11  Occ=0.000000D+00  E=-1.939886D-01  Symmetry=b1

 Vector   12  Occ=0.000000D+00  E=-1.650936D-01  Symmetry=a1

 Vector   13  Occ=0.000000D+00  E=-1.340928D-01  Symmetry=a1

 Vector   14  Occ=0.000000D+00  E=-1.238762D-01  Symmetry=b2

 Vector   15  Occ=0.000000D+00  E=-1.078028D-01  Symmetry=a1

 Vector   16  Occ=0.000000D+00  E=-1.032173D-01  Symmetry=b1

 Vector   17  Occ=0.000000D+00  E=-6.672206D-02  Symmetry=b1

 Vector   18  Occ=0.000000D+00  E=-6.007154D-02  Symmetry=a2

 Vector   19  Occ=0.000000D+00  E=-5.666238D-02  Symmetry=a1

 Vector   20  Occ=0.000000D+00  E=-4.221223D-02  Symmetry=a1

 Vector   21  Occ=0.000000D+00  E=-2.616759D-02  Symmetry=b1

 Vector   22  Occ=0.000000D+00  E= 8.401608D-03  Symmetry=b2

 Vector   23  Occ=0.000000D+00  E= 5.858490D-02  Symmetry=a1

 Vector   24  Occ=0.000000D+00  E= 7.095490D-02  Symmetry=a1

 Vector   25  Occ=0.000000D+00  E= 1.006646D-01  Symmetry=b1

 Vector   26  Occ=0.000000D+00  E= 1.176583D-01  Symmetry=a1

 Vector   27  Occ=0.000000D+00  E= 1.196535D-01  Symmetry=b2

 Vector   28  Occ=0.000000D+00  E= 1.534566D-01  Symmetry=a1

 Vector   29  Occ=0.000000D+00  E= 2.148294D-01  Symmetry=b1

 Vector   30  Occ=0.000000D+00  E= 2.276917D-01  Symmetry=a2

 Vector   31  Occ=0.000000D+00  E= 2.397849D-01  Symmetry=b2

 Vector   32  Occ=0.000000D+00  E= 2.475307D-01  Symmetry=a1

 Vector   33  Occ=0.000000D+00  E= 2.495012D-01  Symmetry=b1

 Vector   34  Occ=0.000000D+00  E= 2.604692D-01  Symmetry=a2

 Vector   35  Occ=0.000000D+00  E= 2.663060D-01  Symmetry=b1

 Vector   36  Occ=0.000000D+00  E= 3.117004D-01  Symmetry=a1

 Vector   37  Occ=0.000000D+00  E= 3.366187D-01  Symmetry=b2

 Vector   38  Occ=0.000000D+00  E= 3.782967D-01  Symmetry=a1

 Vector   39  Occ=0.000000D+00  E= 3.836411D-01  Symmetry=b1

 Vector   40  Occ=0.000000D+00  E= 4.178427D-01  Symmetry=a2

 Vector   41  Occ=0.000000D+00  E= 4.264473D-01  Symmetry=b1

 Vector   42  Occ=0.000000D+00  E= 4.324986D-01  Symmetry=a1

 Vector   43  Occ=0.000000D+00  E= 5.216236D-01  Symmetry=a1

     Multipole analysis of the density
     ---------------------------------

     L   x y z        total         alpha         beta         nuclear
     -   - - -        -----         -----         ----         -------
     0   0 0 0      1.000000     -7.000000     -7.000000     15.000000

     1   1 0 0      0.000000      0.000000      0.000000      0.000000
     1   0 1 0      0.000000      0.000000      0.000000      0.000000
     1   0 0 1      0.368761      0.184381      0.184381     -0.000000

     2   2 0 0     -1.377248    -19.104610    -19.104610     36.831972
     2   1 1 0      0.000000      0.000000      0.000000      0.000000
     2   1 0 1     -0.000000     -0.000000     -0.000000      0.000000
     2   0 2 0     -8.960303     -4.480152     -4.480152      0.000000
     2   0 1 1      0.000000      0.000000      0.000000      0.000000

 Total times  cpu:       17.2s     wall:       18.9s
