 Output coordinates in angstroms (scale by  1.889725989 to convert to a.u.)

  No.       Tag          Charge          X              Y              Z
 ---- ---------------- ---------- -------------- -------------- --------------
    1 H                    1.0000     0.00000000     0.00000000     0.36858000
    2 H                    1.0000     0.00000000     0.00000000    -0.36858000

         Total DFT energy =       -1.182338931696

                       DFT Final Molecular Orbital Analysis
                       ------------------------------------

 Vector    1  Occ=2.000000D+00  E=-4.009060D-01  Symmetry=a1g

 Vector    2  Occ=0.000000D+00  E= 1.209842D-02  Symmetry=a2u

 Vector    3  Occ=0.000000D+00  E= 1.921835D-02  Symmetry=a1g

 Vector    4  Occ=0.000000D+00  E= 1.312713D-01  Symmetry=a2u

 Vector    5  Occ=0.000000D+00  E= 2.256320D-01  Symmetry=eu

 Vector    6  Occ=0.000000D+00  E= 2.256320D-01  Symmetry=eu

 Vector    7  Occ=0.000000D+00  E= 3.157742D-01  Symmetry=a1g

 Vector    8  Occ=0.000000D+00  E= 4.338051D-01  Symmetry=a2u

 Vector    9  Occ=0.000000D+00  E= 4.647186D-01  Symmetry=eg

 Vector   10  Occ=0.000000D+00  E= 4.647186D-01  Symmetry=eg

 Vector   11  Occ=0.000000D+00  E= 4.753913D-01  Symmetry=a1g

 Vector   12  Occ=0.000000D+00  E= 9.626351D-01  Symmetry=a2u

     Multipole analysis of the density
     ---------------------------------

     L   x y z        total         alpha         beta         nuclear
     -   - - -        -----         -----         ----         -------
     0   0 0 0     -0.000000     -1.000000     -1.000000      2.000000

     1   1 0 0      0.000000      0.000000      0.000000      0.000000
     1   0 1 0      0.000000      0.000000      0.000000      0.000000
     1   0 0 1      0.000000      0.000000      0.000000      0.000000

     2   2 0 0     -1.532722     -0.766361     -0.766361      0.000000
     2   1 1 0      0.000000      0.000000      0.000000      0.000000
     2   1 0 1      0.000000      0.000000      0.000000      0.000000
     2   0 2 0     -1.532722     -0.766361     -0.766361      0.000000
     2   0 1 1      0.000000      0.000000      0.000000      0.000000

 Total times  cpu:        0.2s     wall:        0.6s
