 Output coordinates in angstroms (scale by  1.889725989 to convert to a.u.)

  No.       Tag          Charge          X              Y              Z
 ---- ---------------- ---------- -------------- -------------- --------------
    1 Cl                  17.0000     0.00000000     0.00000000    -0.09115219
    2 H                    1.0000    -0.97252313     0.00000000     0.77479365
    3 H                    1.0000     0.97252313     0.00000000     0.77479365

         Total DFT energy =     -460.895969189471

                       DFT Final Molecular Orbital Analysis
                       ------------------------------------

 Vector    1  Occ=2.000000D+00  E=-1.014517D+02  Symmetry=a1

 Vector    2  Occ=2.000000D+00  E=-9.659021D+00  Symmetry=a1

 Vector    3  Occ=2.000000D+00  E=-7.417864D+00  Symmetry=b1

 Vector    4  Occ=2.000000D+00  E=-7.413602D+00  Symmetry=a1

 Vector    5  Occ=2.000000D+00  E=-7.405044D+00  Symmetry=b2

 Vector    6  Occ=2.000000D+00  E=-1.178768D+00  Symmetry=a1

 Vector    7  Occ=2.000000D+00  E=-8.198925D-01  Symmetry=b1

 Vector    8  Occ=2.000000D+00  E=-7.435071D-01  Symmetry=a1

 Vector    9  Occ=2.000000D+00  E=-6.439035D-01  Symmetry=b2

 Vector   10  Occ=0.000000D+00  E=-3.302287D-01  Symmetry=b1

 Vector   11  Occ=0.000000D+00  E=-3.001533D-01  Symmetry=a1

 Vector   12  Occ=0.000000D+00  E=-1.732881D-01  Symmetry=a1

 Vector   13  Occ=0.000000D+00  E=-1.518528D-01  Symmetry=b1

 Vector   14  Occ=0.000000D+00  E=-1.408799D-01  Symmetry=a1

 Vector   15  Occ=0.000000D+00  E=-1.290747D-01  Symmetry=b2

 Vector   16  Occ=0.000000D+00  E=-1.144043D-01  Symmetry=a1

 Vector   17  Occ=0.000000D+00  E=-9.983144D-02  Symmetry=a2

 Vector   18  Occ=0.000000D+00  E=-8.254274D-02  Symmetry=b2

 Vector   19  Occ=0.000000D+00  E=-7.246202D-02  Symmetry=a1

 Vector   20  Occ=0.000000D+00  E=-5.639066D-02  Symmetry=b1

 Vector   21  Occ=0.000000D+00  E= 4.294948D-02  Symmetry=b1

 Vector   22  Occ=0.000000D+00  E= 6.340371D-02  Symmetry=a1

 Vector   23  Occ=0.000000D+00  E= 1.272134D-01  Symmetry=a1

 Vector   24  Occ=0.000000D+00  E= 1.677108D-01  Symmetry=b2

 Vector   25  Occ=0.000000D+00  E= 1.816034D-01  Symmetry=a1

 Vector   26  Occ=0.000000D+00  E= 1.969357D-01  Symmetry=b1

 Vector   27  Occ=0.000000D+00  E= 2.060409D-01  Symmetry=b1

 Vector   28  Occ=0.000000D+00  E= 2.201616D-01  Symmetry=a2

 Vector   29  Occ=0.000000D+00  E= 2.346119D-01  Symmetry=a1

 Vector   30  Occ=0.000000D+00  E= 2.530340D-01  Symmetry=b2

 Vector   31  Occ=0.000000D+00  E= 2.965459D-01  Symmetry=a1

 Vector   32  Occ=0.000000D+00  E= 3.216283D-01  Symmetry=b1

 Vector   33  Occ=0.000000D+00  E= 5.634753D-01  Symmetry=a1

     Multipole analysis of the density
     ---------------------------------

     L   x y z        total         alpha         beta         nuclear
     -   - - -        -----         -----         ----         -------
     0   0 0 0      1.000000     -9.000000     -9.000000     19.000000

     1   1 0 0     -0.000000     -0.000000     -0.000000      0.000000
     1   0 1 0      0.000000      0.000000      0.000000      0.000000
     1   0 0 1      0.721001      0.360500      0.360500      0.000000

     2   2 0 0     -5.435841     -6.095437     -6.095437      6.755034
     2   1 1 0      0.000000      0.000000      0.000000      0.000000
     2   1 0 1     -0.000000     -0.000000     -0.000000      0.000000
     2   0 2 0     -9.145729     -4.572864     -4.572864      0.000000
     2   0 1 1      0.000000      0.000000      0.000000      0.000000

 Total times  cpu:        5.5s     wall:        6.1s
