 Output coordinates in angstroms (scale by  1.889725989 to convert to a.u.)

  No.       Tag          Charge          X              Y              Z
 ---- ---------------- ---------- -------------- -------------- --------------
    1 S                   16.0000     0.00000000     0.00000000     0.10906895
    2 H                    1.0000     0.81766473     0.81766473    -0.58170105
    3 H                    1.0000     0.29928606    -1.11695079    -0.58170105
    4 H                    1.0000    -1.11695079     0.29928606    -0.58170105

         Total DFT energy =     -399.564796288394

                       DFT Final Molecular Orbital Analysis
                       ------------------------------------

 Vector    1  Occ=2.000000D+00  E=-8.876494D+01  Symmetry=a1

 Vector    2  Occ=2.000000D+00  E=-8.117833D+00  Symmetry=a1

 Vector    3  Occ=2.000000D+00  E=-6.076528D+00  Symmetry=e

 Vector    4  Occ=2.000000D+00  E=-6.076528D+00  Symmetry=e

 Vector    5  Occ=2.000000D+00  E=-6.070613D+00  Symmetry=a1

 Vector    6  Occ=2.000000D+00  E=-1.047752D+00  Symmetry=a1

 Vector    7  Occ=2.000000D+00  E=-7.293505D-01  Symmetry=e

 Vector    8  Occ=2.000000D+00  E=-7.293505D-01  Symmetry=e

 Vector    9  Occ=2.000000D+00  E=-6.217959D-01  Symmetry=a1

 Vector   10  Occ=0.000000D+00  E=-2.906874D-01  Symmetry=e

 Vector   11  Occ=0.000000D+00  E=-2.906874D-01  Symmetry=e

 Vector   12  Occ=0.000000D+00  E=-2.466363D-01  Symmetry=a1

 Vector   13  Occ=0.000000D+00  E=-1.448939D-01  Symmetry=e

 Vector   14  Occ=0.000000D+00  E=-1.448939D-01  Symmetry=e

 Vector   15  Occ=0.000000D+00  E=-1.369374D-01  Symmetry=a1

 Vector   16  Occ=0.000000D+00  E=-1.212317D-01  Symmetry=a1

 Vector   17  Occ=0.000000D+00  E=-1.196439D-01  Symmetry=e

 Vector   18  Occ=0.000000D+00  E=-1.196439D-01  Symmetry=e

 Vector   19  Occ=0.000000D+00  E=-7.890970D-02  Symmetry=a1

 Vector   20  Occ=0.000000D+00  E=-6.292849D-02  Symmetry=e

 Vector   21  Occ=0.000000D+00  E=-6.292849D-02  Symmetry=e

 Vector   22  Occ=0.000000D+00  E= 1.494074D-02  Symmetry=a1

 Vector   23  Occ=0.000000D+00  E= 5.208738D-02  Symmetry=e

 Vector   24  Occ=0.000000D+00  E= 5.208738D-02  Symmetry=e

 Vector   25  Occ=0.000000D+00  E= 7.326188D-02  Symmetry=a1

 Vector   26  Occ=0.000000D+00  E= 1.335074D-01  Symmetry=e

 Vector   27  Occ=0.000000D+00  E= 1.335074D-01  Symmetry=e

 Vector   28  Occ=0.000000D+00  E= 1.986654D-01  Symmetry=a2

 Vector   29  Occ=0.000000D+00  E= 2.021191D-01  Symmetry=a1

 Vector   30  Occ=0.000000D+00  E= 2.044344D-01  Symmetry=e

 Vector   31  Occ=0.000000D+00  E= 2.044344D-01  Symmetry=e

 Vector   32  Occ=0.000000D+00  E= 2.220983D-01  Symmetry=e

 Vector   33  Occ=0.000000D+00  E= 2.220983D-01  Symmetry=e

 Vector   34  Occ=0.000000D+00  E= 2.549617D-01  Symmetry=a1

 Vector   35  Occ=0.000000D+00  E= 3.657878D-01  Symmetry=a1

 Vector   36  Occ=0.000000D+00  E= 3.830400D-01  Symmetry=e

 Vector   37  Occ=0.000000D+00  E= 3.830400D-01  Symmetry=e

 Vector   38  Occ=0.000000D+00  E= 5.376569D-01  Symmetry=a1

     Multipole analysis of the density
     ---------------------------------

     L   x y z        total         alpha         beta         nuclear
     -   - - -        -----         -----         ----         -------
     0   0 0 0      1.000000     -9.000000     -9.000000     19.000000

     1   1 0 0      0.000000      0.000000      0.000000      0.000000
     1   0 1 0      0.000000      0.000000      0.000000     -0.000000
     1   0 0 1     -0.570082     -0.285041     -0.285041      0.000000

     2   2 0 0     -7.028379     -7.095479     -7.095479      7.162579
     2   1 1 0     -0.000000     -0.000000     -0.000000      0.000000
     2   1 0 1      0.000000     -0.000000     -0.000000      0.000000
     2   0 2 0     -7.028379     -7.095479     -7.095479      7.162579
     2   0 1 1     -0.000000     -0.000000     -0.000000      0.000000

 Total times  cpu:        4.6s     wall:        5.0s
