 Output coordinates in angstroms (scale by  1.889725989 to convert to a.u.)

  No.       Tag          Charge          X              Y              Z
 ---- ---------------- ---------- -------------- -------------- --------------
    1 S                   16.0000     0.00000000     0.00000000     0.10213556
    2 H                    1.0000    -0.97427000     0.00000000    -0.81708444
    3 H                    1.0000     0.97427000     0.00000000    -0.81708444

         Total DFT energy =     -399.281969552012

                       DFT Final Molecular Orbital Analysis
                       ------------------------------------

 Vector    1  Occ=2.000000D+00  E=-8.840825D+01  Symmetry=a1

 Vector    2  Occ=2.000000D+00  E=-7.763264D+00  Symmetry=a1

 Vector    3  Occ=2.000000D+00  E=-5.724767D+00  Symmetry=b1

 Vector    4  Occ=2.000000D+00  E=-5.721017D+00  Symmetry=a1

 Vector    5  Occ=2.000000D+00  E=-5.713737D+00  Symmetry=b2

 Vector    6  Occ=2.000000D+00  E=-6.971513D-01  Symmetry=a1

 Vector    7  Occ=2.000000D+00  E=-4.187464D-01  Symmetry=b1

 Vector    8  Occ=2.000000D+00  E=-3.404333D-01  Symmetry=a1

 Vector    9  Occ=2.000000D+00  E=-2.371979D-01  Symmetry=b2

 Vector   10  Occ=0.000000D+00  E=-3.130357D-02  Symmetry=a1

 Vector   11  Occ=0.000000D+00  E=-1.632511D-02  Symmetry=b1

 Vector   12  Occ=0.000000D+00  E= 2.180709D-02  Symmetry=b1

 Vector   13  Occ=0.000000D+00  E= 3.268924D-02  Symmetry=a1

 Vector   14  Occ=0.000000D+00  E= 3.946229D-02  Symmetry=b2

 Vector   15  Occ=0.000000D+00  E= 6.642272D-02  Symmetry=a1

 Vector   16  Occ=0.000000D+00  E= 8.410877D-02  Symmetry=b1

 Vector   17  Occ=0.000000D+00  E= 8.961114D-02  Symmetry=a1

 Vector   18  Occ=0.000000D+00  E= 1.538339D-01  Symmetry=a1

 Vector   19  Occ=0.000000D+00  E= 1.801922D-01  Symmetry=a2

 Vector   20  Occ=0.000000D+00  E= 1.886473D-01  Symmetry=b2

 Vector   21  Occ=0.000000D+00  E= 2.550801D-01  Symmetry=b1

 Vector   22  Occ=0.000000D+00  E= 2.678603D-01  Symmetry=a1

 Vector   23  Occ=0.000000D+00  E= 2.809265D-01  Symmetry=a1

 Vector   24  Occ=0.000000D+00  E= 2.985118D-01  Symmetry=b2

 Vector   25  Occ=0.000000D+00  E= 3.310293D-01  Symmetry=b1

 Vector   26  Occ=0.000000D+00  E= 4.035220D-01  Symmetry=a1

 Vector   27  Occ=0.000000D+00  E= 4.395730D-01  Symmetry=b1

 Vector   28  Occ=0.000000D+00  E= 4.523350D-01  Symmetry=a1

 Vector   29  Occ=0.000000D+00  E= 4.645548D-01  Symmetry=a2

 Vector   30  Occ=0.000000D+00  E= 4.988727D-01  Symmetry=b2

 Vector   31  Occ=0.000000D+00  E= 5.347831D-01  Symmetry=a1

     Multipole analysis of the density
     ---------------------------------

     L   x y z        total         alpha         beta         nuclear
     -   - - -        -----         -----         ----         -------
     0   0 0 0     -0.000000     -9.000000     -9.000000     18.000000

     1   1 0 0     -0.000000     -0.000000     -0.000000      0.000000
     1   0 1 0      0.000000      0.000000      0.000000      0.000000
     1   0 0 1     -0.381838     -0.190919     -0.190919      0.000000

     2   2 0 0     -9.192583     -7.985953     -7.985953      6.779323
     2   1 1 0      0.000000      0.000000      0.000000      0.000000
     2   1 0 1     -0.000000     -0.000000     -0.000000      0.000000
     2   0 2 0    -12.433535     -6.216767     -6.216767      0.000000
     2   0 1 1      0.000000      0.000000      0.000000      0.000000

 Total times  cpu:        2.8s     wall:        3.1s
