 Output coordinates in angstroms (scale by  1.889725989 to convert to a.u.)

  No.       Tag          Charge          X              Y              Z
 ---- ---------------- ---------- -------------- -------------- --------------
    1 H                    1.0000     0.34745473     0.34745473     0.00000000
    2 H                    1.0000    -0.47463198     0.12717726     0.00000000
    3 H                    1.0000     0.12717726    -0.47463198     0.00000000

         Total DFT energy =       -1.354856530334

                       DFT Final Molecular Orbital Analysis
                       ------------------------------------

 Vector    1  Occ=2.000000D+00  E=-1.015232D+00  Symmetry=a1'

 Vector    2  Occ=0.000000D+00  E=-2.995650D-01  Symmetry=e'

 Vector    3  Occ=0.000000D+00  E=-2.995650D-01  Symmetry=e'

 Vector    4  Occ=0.000000D+00  E=-1.923968D-01  Symmetry=a1'

 Vector    5  Occ=0.000000D+00  E=-1.383114D-01  Symmetry=a2"

 Vector    6  Occ=0.000000D+00  E=-7.848582D-02  Symmetry=e'

 Vector    7  Occ=0.000000D+00  E=-7.848582D-02  Symmetry=e'

 Vector    8  Occ=0.000000D+00  E= 3.451730D-02  Symmetry=a1'

 Vector    9  Occ=0.000000D+00  E= 1.063542D-01  Symmetry=e'

 Vector   10  Occ=0.000000D+00  E= 1.063542D-01  Symmetry=e'

 Vector   11  Occ=0.000000D+00  E= 1.486626D-01  Symmetry=e"

 Vector   12  Occ=0.000000D+00  E= 1.486626D-01  Symmetry=e"

 Vector   13  Occ=0.000000D+00  E= 1.644566D-01  Symmetry=e'

 Vector   14  Occ=0.000000D+00  E= 1.644566D-01  Symmetry=e'

 Vector   15  Occ=0.000000D+00  E= 2.045091D-01  Symmetry=a1'

 Vector   16  Occ=0.000000D+00  E= 3.824817D-01  Symmetry=a2'

 Vector   17  Occ=0.000000D+00  E= 6.618269D-01  Symmetry=e'

     Multipole analysis of the density
     ---------------------------------

     L   x y z        total         alpha         beta         nuclear
     -   - - -        -----         -----         ----         -------
     0   0 0 0      1.000000     -1.000000     -1.000000      3.000000

     1   1 0 0      0.000000     -0.000000     -0.000000      0.000000
     1   0 1 0      0.000000      0.000000      0.000000      0.000000
     1   0 0 1      0.000000      0.000000      0.000000      0.000000

     2   2 0 0     -0.180754     -0.737051     -0.737051      1.293348
     2   1 1 0      0.000000     -0.000000     -0.000000      0.000000
     2   1 0 1      0.000000      0.000000      0.000000      0.000000
     2   0 2 0     -0.180754     -0.737051     -0.737051      1.293348
     2   0 1 1      0.000000      0.000000      0.000000      0.000000

 Total times  cpu:        1.3s     wall:        1.9s
