 Output coordinates in angstroms (scale by  1.889725989 to convert to a.u.)

  No.       Tag          Charge          X              Y              Z
 ---- ---------------- ---------- -------------- -------------- --------------
    1 O                    8.0000     0.00000000     0.00000000    -0.08099492
    2 H                    1.0000     0.66840471     0.66840471     0.21598645
    3 H                    1.0000    -0.91305781     0.24465310     0.21598645
    4 H                    1.0000     0.24465310    -0.91305781     0.21598645

         Total DFT energy =      -76.707162077566

                       DFT Final Molecular Orbital Analysis
                       ------------------------------------

 Vector    1  Occ=2.000000D+00  E=-1.935277D+01  Symmetry=a1

 Vector    2  Occ=2.000000D+00  E=-1.386118D+00  Symmetry=a1

 Vector    3  Occ=2.000000D+00  E=-8.839019D-01  Symmetry=e

 Vector    4  Occ=2.000000D+00  E=-8.839019D-01  Symmetry=e

 Vector    5  Occ=2.000000D+00  E=-6.926470D-01  Symmetry=a1

 Vector    6  Occ=0.000000D+00  E=-2.965088D-01  Symmetry=a1

 Vector    7  Occ=0.000000D+00  E=-2.046405D-01  Symmetry=e

 Vector    8  Occ=0.000000D+00  E=-2.046405D-01  Symmetry=e

 Vector    9  Occ=0.000000D+00  E=-1.116523D-01  Symmetry=e

 Vector   10  Occ=0.000000D+00  E=-1.116523D-01  Symmetry=e

 Vector   11  Occ=0.000000D+00  E=-1.099365D-01  Symmetry=a1

 Vector   12  Occ=0.000000D+00  E=-9.110841D-02  Symmetry=a1

 Vector   13  Occ=0.000000D+00  E=-1.983629D-02  Symmetry=e

 Vector   14  Occ=0.000000D+00  E=-1.983629D-02  Symmetry=e

 Vector   15  Occ=0.000000D+00  E=-1.349492D-02  Symmetry=a1

 Vector   16  Occ=0.000000D+00  E= 3.492890D-02  Symmetry=e

 Vector   17  Occ=0.000000D+00  E= 3.492890D-02  Symmetry=e

 Vector   18  Occ=0.000000D+00  E= 1.623933D-01  Symmetry=e

 Vector   19  Occ=0.000000D+00  E= 1.623933D-01  Symmetry=e

 Vector   20  Occ=0.000000D+00  E= 2.045134D-01  Symmetry=a1

 Vector   21  Occ=0.000000D+00  E= 2.352629D-01  Symmetry=a1

 Vector   22  Occ=0.000000D+00  E= 2.647850D-01  Symmetry=a2

 Vector   23  Occ=0.000000D+00  E= 3.014376D-01  Symmetry=e

 Vector   24  Occ=0.000000D+00  E= 3.014376D-01  Symmetry=e

 Vector   25  Occ=0.000000D+00  E= 3.766237D-01  Symmetry=a1

 Vector   26  Occ=0.000000D+00  E= 4.519042D-01  Symmetry=e

 Vector   27  Occ=0.000000D+00  E= 4.519042D-01  Symmetry=e

 Vector   28  Occ=0.000000D+00  E= 5.802951D-01  Symmetry=a1

     Multipole analysis of the density
     ---------------------------------

     L   x y z        total         alpha         beta         nuclear
     -   - - -        -----         -----         ----         -------
     0   0 0 0      1.000000     -5.000000     -5.000000     11.000000

     1   1 0 0     -0.000000     -0.000000     -0.000000     -0.000000
     1   0 1 0      0.000000      0.000000      0.000000     -0.000000
     1   0 0 1      0.588201      0.294101      0.294101      0.000000

     2   2 0 0     -1.877846     -3.332062     -3.332062      4.786278
     2   1 1 0     -0.000000     -0.000000     -0.000000     -0.000000
     2   1 0 1     -0.000000     -0.000000     -0.000000     -0.000000
     2   0 2 0     -1.877846     -3.332062     -3.332062      4.786278
     2   0 1 1     -0.000000     -0.000000     -0.000000      0.000000

 Total times  cpu:        6.7s     wall:        7.5s
