 Output coordinates in angstroms (scale by  1.889725989 to convert to a.u.)

  No.       Tag          Charge          X              Y              Z
 ---- ---------------- ---------- -------------- -------------- --------------
    1 Cl                  17.0000     0.00000000     0.00000000     0.07111000
    2 H                    1.0000     0.00000000     0.00000000    -1.20887000

         Total DFT energy =     -460.672183681395

                       DFT Final Molecular Orbital Analysis
                       ------------------------------------

 Vector    1  Occ=2.000000D+00  E=-1.010645D+02  Symmetry=a1

 Vector    2  Occ=2.000000D+00  E=-9.274800D+00  Symmetry=a1

 Vector    3  Occ=2.000000D+00  E=-7.034811D+00  Symmetry=a1

 Vector    4  Occ=2.000000D+00  E=-7.024201D+00  Symmetry=e

 Vector    5  Occ=2.000000D+00  E=-7.024201D+00  Symmetry=e

 Vector    6  Occ=2.000000D+00  E=-7.940675D-01  Symmetry=a1

 Vector    7  Occ=2.000000D+00  E=-4.414525D-01  Symmetry=a1

 Vector    8  Occ=2.000000D+00  E=-3.014045D-01  Symmetry=e

 Vector    9  Occ=2.000000D+00  E=-3.014045D-01  Symmetry=e

 Vector   10  Occ=0.000000D+00  E=-3.907462D-02  Symmetry=a1

 Vector   11  Occ=0.000000D+00  E= 2.926649D-02  Symmetry=a1

 Vector   12  Occ=0.000000D+00  E= 4.385099D-02  Symmetry=a1

 Vector   13  Occ=0.000000D+00  E= 5.577837D-02  Symmetry=e

 Vector   14  Occ=0.000000D+00  E= 5.577837D-02  Symmetry=e

 Vector   15  Occ=0.000000D+00  E= 1.031700D-01  Symmetry=a1

 Vector   16  Occ=0.000000D+00  E= 1.975762D-01  Symmetry=e

 Vector   17  Occ=0.000000D+00  E= 1.975762D-01  Symmetry=e

 Vector   18  Occ=0.000000D+00  E= 2.525659D-01  Symmetry=b2

 Vector   19  Occ=0.000000D+00  E= 2.525665D-01  Symmetry=b1

 Vector   20  Occ=0.000000D+00  E= 2.572930D-01  Symmetry=a1

 Vector   21  Occ=0.000000D+00  E= 3.623296D-01  Symmetry=a1

 Vector   22  Occ=0.000000D+00  E= 4.038278D-01  Symmetry=e

 Vector   23  Occ=0.000000D+00  E= 4.038278D-01  Symmetry=e

 Vector   24  Occ=0.000000D+00  E= 4.561148D-01  Symmetry=a1

 Vector   25  Occ=0.000000D+00  E= 4.895867D-01  Symmetry=e

 Vector   26  Occ=0.000000D+00  E= 4.895867D-01  Symmetry=e

 Vector   27  Occ=0.000000D+00  E= 5.303222D-01  Symmetry=a1

     Multipole analysis of the density
     ---------------------------------

     L   x y z        total         alpha         beta         nuclear
     -   - - -        -----         -----         ----         -------
     0   0 0 0     -0.000000     -9.000000     -9.000000     18.000000

     1   1 0 0      0.000000      0.000000      0.000000      0.000000
     1   0 1 0      0.000000      0.000000      0.000000      0.000000
     1   0 0 1     -0.423146     -0.211573     -0.211573      0.000000

     2   2 0 0    -10.470945     -5.235472     -5.235472      0.000000
     2   1 1 0      0.000000      0.000000      0.000000      0.000000
     2   1 0 1      0.000000      0.000000      0.000000      0.000000
     2   0 2 0    -10.470945     -5.235472     -5.235472      0.000000
     2   0 1 1      0.000000      0.000000      0.000000      0.000000

 Total times  cpu:        1.6s     wall:        2.0s
