 Output coordinates in angstroms (scale by  1.889725989 to convert to a.u.)

  No.       Tag          Charge          X              Y              Z
 ---- ---------------- ---------- -------------- -------------- --------------
    1 N                    7.0000     0.00000000     0.00000000     0.00000000
    2 H                    1.0000     0.59382114     0.59382114     0.59382114
    3 H                    1.0000    -0.59382114    -0.59382114     0.59382114
    4 H                    1.0000     0.59382114    -0.59382114    -0.59382114
    5 H                    1.0000    -0.59382114     0.59382114    -0.59382114

         Total DFT energy =      -56.904974042174

                       DFT Final Molecular Orbital Analysis
                       ------------------------------------

 Vector    1  Occ=2.000000D+00  E=-1.450645D+01  Symmetry=a1

 Vector    2  Occ=2.000000D+00  E=-1.189778D+00  Symmetry=a1

 Vector    3  Occ=2.000000D+00  E=-7.791758D-01  Symmetry=t2

 Vector    4  Occ=2.000000D+00  E=-7.791758D-01  Symmetry=t2

 Vector    5  Occ=2.000000D+00  E=-7.791758D-01  Symmetry=t2

 Vector    6  Occ=0.000000D+00  E=-2.485933D-01  Symmetry=a1

 Vector    7  Occ=0.000000D+00  E=-1.689977D-01  Symmetry=t2

 Vector    8  Occ=0.000000D+00  E=-1.689977D-01  Symmetry=t2

 Vector    9  Occ=0.000000D+00  E=-1.689977D-01  Symmetry=t2

 Vector   10  Occ=0.000000D+00  E=-1.226931D-01  Symmetry=t2

 Vector   11  Occ=0.000000D+00  E=-1.226931D-01  Symmetry=t2

 Vector   12  Occ=0.000000D+00  E=-1.226931D-01  Symmetry=t2

 Vector   13  Occ=0.000000D+00  E=-6.618826D-02  Symmetry=a1

 Vector   14  Occ=0.000000D+00  E=-2.514496D-02  Symmetry=t2

 Vector   15  Occ=0.000000D+00  E=-2.514496D-02  Symmetry=t2

 Vector   16  Occ=0.000000D+00  E=-2.514496D-02  Symmetry=t2

 Vector   17  Occ=0.000000D+00  E= 3.490751D-03  Symmetry=e

 Vector   18  Occ=0.000000D+00  E= 3.490751D-03  Symmetry=e

 Vector   19  Occ=0.000000D+00  E= 6.109075D-02  Symmetry=a1

 Vector   20  Occ=0.000000D+00  E= 1.272777D-01  Symmetry=t2

 Vector   21  Occ=0.000000D+00  E= 1.272777D-01  Symmetry=t2

 Vector   22  Occ=0.000000D+00  E= 1.272777D-01  Symmetry=t2

 Vector   23  Occ=0.000000D+00  E= 2.722060D-01  Symmetry=t1

 Vector   24  Occ=0.000000D+00  E= 2.722060D-01  Symmetry=t1

 Vector   25  Occ=0.000000D+00  E= 2.722060D-01  Symmetry=t1

 Vector   26  Occ=0.000000D+00  E= 3.190545D-01  Symmetry=t2

 Vector   27  Occ=0.000000D+00  E= 3.190545D-01  Symmetry=t2

 Vector   28  Occ=0.000000D+00  E= 3.190545D-01  Symmetry=t2

 Vector   29  Occ=0.000000D+00  E= 3.301992D-01  Symmetry=a1

 Vector   30  Occ=0.000000D+00  E= 3.544746D-01  Symmetry=a1

 Vector   31  Occ=0.000000D+00  E= 4.362892D-01  Symmetry=t2

 Vector   32  Occ=0.000000D+00  E= 4.362892D-01  Symmetry=t2

 Vector   33  Occ=0.000000D+00  E= 4.362892D-01  Symmetry=t2

 Vector   34  Occ=0.000000D+00  E= 5.180457D-01  Symmetry=e

     Multipole analysis of the density
     ---------------------------------

     L   x y z        total         alpha         beta         nuclear
     -   - - -        -----         -----         ----         -------
     0   0 0 0      1.000000     -5.000000     -5.000000     11.000000

     1   1 0 0     -0.000000     -0.000000     -0.000000      0.000000
     1   0 1 0      0.000000      0.000000      0.000000      0.000000
     1   0 0 1      0.000000      0.000000      0.000000      0.000000

     2   2 0 0     -3.236208     -4.136586     -4.136586      5.036965
     2   1 1 0     -0.000000     -0.000000     -0.000000      0.000000
     2   1 0 1     -0.000000     -0.000000     -0.000000      0.000000
     2   0 2 0     -3.236208     -4.136586     -4.136586      5.036965
     2   0 1 1     -0.000000     -0.000000     -0.000000      0.000000

 Total times  cpu:        2.5s     wall:        2.9s
