 Output coordinates in angstroms (scale by  1.889725989 to convert to a.u.)

  No.       Tag          Charge          X              Y              Z
 ---- ---------------- ---------- -------------- -------------- --------------
    1 N                    7.0000     0.00000000     0.00000000     0.11649000
    2 H                    1.0000    -0.66448826    -0.66448826    -0.27181000
    3 H                    1.0000    -0.24321958     0.90770784    -0.27181000
    4 H                    1.0000     0.90770784    -0.24321958    -0.27181000

         Total DFT energy =      -56.565435145096

                       DFT Final Molecular Orbital Analysis
                       ------------------------------------

 Vector    1  Occ=2.000000D+00  E=-1.411497D+01  Symmetry=a1

 Vector    2  Occ=2.000000D+00  E=-8.015153D-01  Symmetry=a1

 Vector    3  Occ=2.000000D+00  E=-4.229347D-01  Symmetry=e

 Vector    4  Occ=2.000000D+00  E=-4.229347D-01  Symmetry=e

 Vector    5  Occ=2.000000D+00  E=-2.342123D-01  Symmetry=a1

 Vector    6  Occ=0.000000D+00  E=-2.831196D-02  Symmetry=a1

 Vector    7  Occ=0.000000D+00  E= 1.855004D-02  Symmetry=e

 Vector    8  Occ=0.000000D+00  E= 1.855004D-02  Symmetry=e

 Vector    9  Occ=0.000000D+00  E= 8.448466D-02  Symmetry=a1

 Vector   10  Occ=0.000000D+00  E= 1.155037D-01  Symmetry=e

 Vector   11  Occ=0.000000D+00  E= 1.155037D-01  Symmetry=e

 Vector   12  Occ=0.000000D+00  E= 1.215973D-01  Symmetry=a1

 Vector   13  Occ=0.000000D+00  E= 1.776574D-01  Symmetry=e

 Vector   14  Occ=0.000000D+00  E= 1.776574D-01  Symmetry=e

 Vector   15  Occ=0.000000D+00  E= 1.911763D-01  Symmetry=a1

 Vector   16  Occ=0.000000D+00  E= 2.836397D-01  Symmetry=e

 Vector   17  Occ=0.000000D+00  E= 2.836397D-01  Symmetry=e

 Vector   18  Occ=0.000000D+00  E= 3.680425D-01  Symmetry=e

 Vector   19  Occ=0.000000D+00  E= 3.680425D-01  Symmetry=e

 Vector   20  Occ=0.000000D+00  E= 4.100369D-01  Symmetry=a1

 Vector   21  Occ=0.000000D+00  E= 4.883111D-01  Symmetry=a1

 Vector   22  Occ=0.000000D+00  E= 5.200737D-01  Symmetry=a2

     Multipole analysis of the density
     ---------------------------------

     L   x y z        total         alpha         beta         nuclear
     -   - - -        -----         -----         ----         -------
     0   0 0 0      0.000000     -5.000000     -5.000000     10.000000

     1   1 0 0      0.000000      0.000000      0.000000     -0.000000
     1   0 1 0      0.000000      0.000000      0.000000      0.000000
     1   0 0 1     -0.584646     -0.292323     -0.292323      0.000000

     2   2 0 0     -4.779777     -4.755065     -4.755065      4.730353
     2   1 1 0     -0.000000     -0.000000     -0.000000      0.000000
     2   1 0 1     -0.000000     -0.000000     -0.000000      0.000000
     2   0 2 0     -4.779777     -4.755065     -4.755065      4.730353
     2   0 1 1     -0.000000     -0.000000     -0.000000     -0.000000

 Total times  cpu:        3.5s     wall:        3.8s
