 Output coordinates in angstroms (scale by  1.889725989 to convert to a.u.)

  No.       Tag          Charge          X              Y              Z
 ---- ---------------- ---------- -------------- -------------- --------------
    1 P                   15.0000     0.00000000     0.00000000     0.12461833
    2 H                    1.0000    -0.84898519    -0.84898519    -0.62309167
    3 H                    1.0000    -0.31075015     1.15973534    -0.62309167
    4 H                    1.0000     1.15973534    -0.31075015    -0.62309167

         Total DFT energy =     -343.052470289203

                       DFT Final Molecular Orbital Analysis
                       ------------------------------------

 Vector    1  Occ=2.000000D+00  E=-7.662973D+01  Symmetry=a1

 Vector    2  Occ=2.000000D+00  E=-6.381390D+00  Symmetry=a1

 Vector    3  Occ=2.000000D+00  E=-4.541411D+00  Symmetry=e

 Vector    4  Occ=2.000000D+00  E=-4.541411D+00  Symmetry=e

 Vector    5  Occ=2.000000D+00  E=-4.536360D+00  Symmetry=a1

 Vector    6  Occ=2.000000D+00  E=-6.036778D-01  Symmetry=a1

 Vector    7  Occ=2.000000D+00  E=-3.618386D-01  Symmetry=e

 Vector    8  Occ=2.000000D+00  E=-3.618386D-01  Symmetry=e

 Vector    9  Occ=2.000000D+00  E=-2.512154D-01  Symmetry=a1

 Vector   10  Occ=0.000000D+00  E=-2.463220D-02  Symmetry=a1

 Vector   11  Occ=0.000000D+00  E=-7.209614D-03  Symmetry=e

 Vector   12  Occ=0.000000D+00  E=-7.209614D-03  Symmetry=e

 Vector   13  Occ=0.000000D+00  E= 2.099978D-02  Symmetry=e

 Vector   14  Occ=0.000000D+00  E= 2.099978D-02  Symmetry=e

 Vector   15  Occ=0.000000D+00  E= 2.868995D-02  Symmetry=a1

 Vector   16  Occ=0.000000D+00  E= 8.044644D-02  Symmetry=e

 Vector   17  Occ=0.000000D+00  E= 8.044644D-02  Symmetry=e

 Vector   18  Occ=0.000000D+00  E= 9.002220D-02  Symmetry=a1

 Vector   19  Occ=0.000000D+00  E= 1.157396D-01  Symmetry=a1

 Vector   20  Occ=0.000000D+00  E= 1.409206D-01  Symmetry=e

 Vector   21  Occ=0.000000D+00  E= 1.409206D-01  Symmetry=e

 Vector   22  Occ=0.000000D+00  E= 1.963330D-01  Symmetry=a1

 Vector   23  Occ=0.000000D+00  E= 2.360702D-01  Symmetry=e

 Vector   24  Occ=0.000000D+00  E= 2.360702D-01  Symmetry=e

 Vector   25  Occ=0.000000D+00  E= 2.474295D-01  Symmetry=a1

 Vector   26  Occ=0.000000D+00  E= 3.140102D-01  Symmetry=e

 Vector   27  Occ=0.000000D+00  E= 3.140102D-01  Symmetry=e

 Vector   28  Occ=0.000000D+00  E= 4.090070D-01  Symmetry=a1

 Vector   29  Occ=0.000000D+00  E= 4.226633D-01  Symmetry=e

 Vector   30  Occ=0.000000D+00  E= 4.226633D-01  Symmetry=e

 Vector   31  Occ=0.000000D+00  E= 4.252565D-01  Symmetry=a2

 Vector   32  Occ=0.000000D+00  E= 4.256955D-01  Symmetry=a1

 Vector   33  Occ=0.000000D+00  E= 4.464654D-01  Symmetry=e

 Vector   34  Occ=0.000000D+00  E= 4.464654D-01  Symmetry=e

 Vector   35  Occ=0.000000D+00  E= 6.120594D-01  Symmetry=a1

     Multipole analysis of the density
     ---------------------------------

     L   x y z        total         alpha         beta         nuclear
     -   - - -        -----         -----         ----         -------
     0   0 0 0     -0.000000     -9.000000     -9.000000     18.000000

     1   1 0 0      0.000000      0.000000      0.000000     -0.000000
     1   0 1 0      0.000000      0.000000      0.000000     -0.000000
     1   0 0 1     -0.255660     -0.127830     -0.127830      0.000000

     2   2 0 0    -10.979752     -9.350781     -9.350781      7.721811
     2   1 1 0      0.000000      0.000000      0.000000      0.000000
     2   1 0 1      0.000000      0.000000      0.000000      0.000000
     2   0 2 0    -10.979752     -9.350781     -9.350781      7.721811
     2   0 1 1      0.000000      0.000000      0.000000      0.000000

 Total times  cpu:        4.6s     wall:        5.0s
