 Output coordinates in angstroms (scale by  1.889725989 to convert to a.u.)

  No.       Tag          Charge          X              Y              Z
 ---- ---------------- ---------- -------------- -------------- --------------
    1 P                   15.0000    -0.00000000    -0.00000000     0.00000053
    2 H                    1.0000    -0.00000000    -0.00000000     1.39292053
    3 H                    1.0000     0.92861239     0.92861239    -0.46430947
    4 H                    1.0000     0.33989572    -1.26850811    -0.46430947
    5 H                    1.0000    -1.26850811     0.33989572    -0.46430947

         Total DFT energy =     -343.366145827930

                       DFT Final Molecular Orbital Analysis
                       ------------------------------------

 Vector    1  Occ=2.000000D+00  E=-7.695736D+01  Symmetry=a1

 Vector    2  Occ=2.000000D+00  E=-6.709392D+00  Symmetry=a1

 Vector    3  Occ=2.000000D+00  E=-4.867724D+00  Symmetry=a1

 Vector    4  Occ=2.000000D+00  E=-4.867724D+00  Symmetry=e

 Vector    5  Occ=2.000000D+00  E=-4.867724D+00  Symmetry=e

 Vector    6  Occ=2.000000D+00  E=-9.209710D-01  Symmetry=a1

 Vector    7  Occ=2.000000D+00  E=-6.670970D-01  Symmetry=a1

 Vector    8  Occ=2.000000D+00  E=-6.670965D-01  Symmetry=e

 Vector    9  Occ=2.000000D+00  E=-6.670965D-01  Symmetry=e

 Vector   10  Occ=0.000000D+00  E=-2.484516D-01  Symmetry=a1

 Vector   11  Occ=0.000000D+00  E=-2.484513D-01  Symmetry=e

 Vector   12  Occ=0.000000D+00  E=-2.484513D-01  Symmetry=e

 Vector   13  Occ=0.000000D+00  E=-2.229515D-01  Symmetry=a1

 Vector   14  Occ=0.000000D+00  E=-1.344071D-01  Symmetry=a1

 Vector   15  Occ=0.000000D+00  E=-1.343978D-01  Symmetry=e

 Vector   16  Occ=0.000000D+00  E=-1.343978D-01  Symmetry=e

 Vector   17  Occ=0.000000D+00  E=-1.222385D-01  Symmetry=e

 Vector   18  Occ=0.000000D+00  E=-1.222385D-01  Symmetry=e

 Vector   19  Occ=0.000000D+00  E=-8.355629D-02  Symmetry=a1

 Vector   20  Occ=0.000000D+00  E=-5.876737D-02  Symmetry=a1

 Vector   21  Occ=0.000000D+00  E=-5.873121D-02  Symmetry=e

 Vector   22  Occ=0.000000D+00  E=-5.873121D-02  Symmetry=e

 Vector   23  Occ=0.000000D+00  E=-3.122550D-02  Symmetry=a1

 Vector   24  Occ=0.000000D+00  E= 4.444770D-02  Symmetry=a1

 Vector   25  Occ=0.000000D+00  E= 4.447319D-02  Symmetry=e

 Vector   26  Occ=0.000000D+00  E= 4.447319D-02  Symmetry=e

 Vector   27  Occ=0.000000D+00  E= 1.280495D-01  Symmetry=a1

 Vector   28  Occ=0.000000D+00  E= 1.280652D-01  Symmetry=e

 Vector   29  Occ=0.000000D+00  E= 1.280652D-01  Symmetry=e

 Vector   30  Occ=0.000000D+00  E= 1.592064D-01  Symmetry=a1

 Vector   31  Occ=0.000000D+00  E= 1.731695D-01  Symmetry=e

 Vector   32  Occ=0.000000D+00  E= 1.731695D-01  Symmetry=e

 Vector   33  Occ=0.000000D+00  E= 1.731700D-01  Symmetry=a2

 Vector   34  Occ=0.000000D+00  E= 2.253684D-01  Symmetry=a1

 Vector   35  Occ=0.000000D+00  E= 2.443147D-01  Symmetry=a1

 Vector   36  Occ=0.000000D+00  E= 2.443174D-01  Symmetry=e

 Vector   37  Occ=0.000000D+00  E= 2.443174D-01  Symmetry=e

 Vector   38  Occ=0.000000D+00  E= 3.556811D-01  Symmetry=a1

 Vector   39  Occ=0.000000D+00  E= 3.556827D-01  Symmetry=e

 Vector   40  Occ=0.000000D+00  E= 3.556827D-01  Symmetry=e

 Vector   41  Occ=0.000000D+00  E= 4.298608D-01  Symmetry=e

 Vector   42  Occ=0.000000D+00  E= 4.298608D-01  Symmetry=e

 Vector   43  Occ=0.000000D+00  E= 5.316153D-01  Symmetry=a1

     Multipole analysis of the density
     ---------------------------------

     L   x y z        total         alpha         beta         nuclear
     -   - - -        -----         -----         ----         -------
     0   0 0 0      1.000000     -9.000000     -9.000000     19.000000

     1   1 0 0     -0.000000     -0.000000     -0.000000      0.000000
     1   0 1 0     -0.000000     -0.000000     -0.000000      0.000000
     1   0 0 1      0.000000      0.000000      0.000000     -0.000000

     2   2 0 0     -7.970327     -8.604269     -8.604269      9.238211
     2   1 1 0      0.000000      0.000000      0.000000      0.000000
     2   1 0 1     -0.000000     -0.000000     -0.000000      0.000000
     2   0 2 0     -7.970327     -8.604269     -8.604269      9.238211
     2   0 1 1      0.000000      0.000000      0.000000     -0.000000

 Total times  cpu:       14.2s     wall:       15.0s
