 Output coordinates in angstroms (scale by  1.889725989 to convert to a.u.)

  No.       Tag          Charge          X              Y              Z
 ---- ---------------- ---------- -------------- -------------- --------------
    1 Si                  14.0000     0.00000000     0.00000000     0.00000000
    2 H                    1.0000     0.85613000    -0.85613000     0.85613000
    3 H                    1.0000    -0.85613000     0.85613000     0.85613000
    4 H                    1.0000     0.85613000     0.85613000    -0.85613000
    5 H                    1.0000    -0.85613000    -0.85613000    -0.85613000

         Total DFT energy =     -291.814599290393

                       DFT Final Molecular Orbital Analysis
                       ------------------------------------

 Vector    1  Occ=2.000000D+00  E=-6.570872D+01  Symmetry=a1

 Vector    2  Occ=2.000000D+00  E=-5.122671D+00  Symmetry=a1

 Vector    3  Occ=2.000000D+00  E=-3.480297D+00  Symmetry=t2

 Vector    4  Occ=2.000000D+00  E=-3.480297D+00  Symmetry=t2

 Vector    5  Occ=2.000000D+00  E=-3.480297D+00  Symmetry=t2

 Vector    6  Occ=2.000000D+00  E=-5.096161D-01  Symmetry=a1

 Vector    7  Occ=2.000000D+00  E=-3.272430D-01  Symmetry=t2

 Vector    8  Occ=2.000000D+00  E=-3.272430D-01  Symmetry=t2

 Vector    9  Occ=2.000000D+00  E=-3.272430D-01  Symmetry=t2

 Vector   10  Occ=0.000000D+00  E=-1.527888D-02  Symmetry=a1

 Vector   11  Occ=0.000000D+00  E= 2.085805D-03  Symmetry=t2

 Vector   12  Occ=0.000000D+00  E= 2.085805D-03  Symmetry=t2

 Vector   13  Occ=0.000000D+00  E= 2.085805D-03  Symmetry=t2

 Vector   14  Occ=0.000000D+00  E= 2.696836D-02  Symmetry=t2

 Vector   15  Occ=0.000000D+00  E= 2.696836D-02  Symmetry=t2

 Vector   16  Occ=0.000000D+00  E= 2.696836D-02  Symmetry=t2

 Vector   17  Occ=0.000000D+00  E= 9.265711D-02  Symmetry=t2

 Vector   18  Occ=0.000000D+00  E= 9.265711D-02  Symmetry=t2

 Vector   19  Occ=0.000000D+00  E= 9.265711D-02  Symmetry=t2

 Vector   20  Occ=0.000000D+00  E= 1.010638D-01  Symmetry=a1

 Vector   21  Occ=0.000000D+00  E= 1.159827D-01  Symmetry=e

 Vector   22  Occ=0.000000D+00  E= 1.159827D-01  Symmetry=e

 Vector   23  Occ=0.000000D+00  E= 1.228864D-01  Symmetry=a1

 Vector   24  Occ=0.000000D+00  E= 2.256323D-01  Symmetry=t2

 Vector   25  Occ=0.000000D+00  E= 2.256323D-01  Symmetry=t2

 Vector   26  Occ=0.000000D+00  E= 2.256323D-01  Symmetry=t2

 Vector   27  Occ=0.000000D+00  E= 2.971173D-01  Symmetry=t2

 Vector   28  Occ=0.000000D+00  E= 2.971173D-01  Symmetry=t2

 Vector   29  Occ=0.000000D+00  E= 2.971173D-01  Symmetry=t2

 Vector   30  Occ=0.000000D+00  E= 3.306919D-01  Symmetry=a1

 Vector   31  Occ=0.000000D+00  E= 3.807460D-01  Symmetry=t1

 Vector   32  Occ=0.000000D+00  E= 3.807460D-01  Symmetry=t1

 Vector   33  Occ=0.000000D+00  E= 3.807460D-01  Symmetry=t1

 Vector   34  Occ=0.000000D+00  E= 3.969107D-01  Symmetry=a1

 Vector   35  Occ=0.000000D+00  E= 4.362331D-01  Symmetry=t2

 Vector   36  Occ=0.000000D+00  E= 4.362331D-01  Symmetry=t2

 Vector   37  Occ=0.000000D+00  E= 4.362331D-01  Symmetry=t2

 Vector   38  Occ=0.000000D+00  E= 5.602031D-01  Symmetry=t2

     Multipole analysis of the density
     ---------------------------------

     L   x y z        total         alpha         beta         nuclear
     -   - - -        -----         -----         ----         -------
     0   0 0 0     -0.000000     -9.000000     -9.000000     18.000000

     1   1 0 0      0.000000      0.000000      0.000000      0.000000
     1   0 1 0     -0.000000     -0.000000     -0.000000      0.000000
     1   0 0 1     -0.000000     -0.000000     -0.000000      0.000000

     2   2 0 0    -12.332690    -11.401230    -11.401230     10.469769
     2   1 1 0      0.000000      0.000000      0.000000      0.000000
     2   1 0 1     -0.000000     -0.000000     -0.000000      0.000000
     2   0 2 0    -12.332690    -11.401230    -11.401230     10.469769
     2   0 1 1      0.000000      0.000000      0.000000      0.000000

 Total times  cpu:        3.1s     wall:        3.5s
