 Output coordinates in angstroms (scale by  1.889725989 to convert to a.u.)

  No.       Tag          Charge          X              Y              Z
 ---- ---------------- ---------- -------------- -------------- --------------
    1 Si                  14.0000    -0.00016878     0.17274319     0.00297868
    2 H                    1.0000     0.38227361    -1.65776771    -0.03773774
    3 H                    1.0000    -0.37864450    -1.65763525    -0.03964646
    4 H                    1.0000     0.02908427     0.36771692    -1.44663999
    5 H                    1.0000    -1.27612897     0.26303700     0.71578599
    6 H                    1.0000     1.24577855     0.26624442     0.76653671

         Total DFT energy =     -292.069427949378

                       DFT Final Molecular Orbital Analysis
                       ------------------------------------

 Vector    1  Occ=2.000000D+00  E=-6.601610D+01

 Vector    2  Occ=2.000000D+00  E=-5.426490D+00

 Vector    3  Occ=2.000000D+00  E=-3.792668D+00

 Vector    4  Occ=2.000000D+00  E=-3.780189D+00

 Vector    5  Occ=2.000000D+00  E=-3.779982D+00

 Vector    6  Occ=2.000000D+00  E=-8.239534D-01

 Vector    7  Occ=2.000000D+00  E=-6.961107D-01

 Vector    8  Occ=2.000000D+00  E=-5.967976D-01

 Vector    9  Occ=2.000000D+00  E=-5.936750D-01

 Vector   10  Occ=0.000000D+00  E=-3.165957D-01

 Vector   11  Occ=0.000000D+00  E=-2.427785D-01

 Vector   12  Occ=0.000000D+00  E=-2.197814D-01

 Vector   13  Occ=0.000000D+00  E=-2.073417D-01

 Vector   14  Occ=0.000000D+00  E=-1.774909D-01

 Vector   15  Occ=0.000000D+00  E=-1.337734D-01

 Vector   16  Occ=0.000000D+00  E=-1.305310D-01

 Vector   17  Occ=0.000000D+00  E=-1.222347D-01

 Vector   18  Occ=0.000000D+00  E=-1.196295D-01

 Vector   19  Occ=0.000000D+00  E=-1.159439D-01

 Vector   20  Occ=0.000000D+00  E=-6.765653D-02

 Vector   21  Occ=0.000000D+00  E=-5.611449D-02

 Vector   22  Occ=0.000000D+00  E=-5.099912D-02

 Vector   23  Occ=0.000000D+00  E=-4.305114D-02

 Vector   24  Occ=0.000000D+00  E=-3.578906D-02

 Vector   25  Occ=0.000000D+00  E= 7.866362D-03

 Vector   26  Occ=0.000000D+00  E= 3.690877D-02

 Vector   27  Occ=0.000000D+00  E= 4.790610D-02

 Vector   28  Occ=0.000000D+00  E= 5.039845D-02

 Vector   29  Occ=0.000000D+00  E= 7.447435D-02

 Vector   30  Occ=0.000000D+00  E= 8.270015D-02

 Vector   31  Occ=0.000000D+00  E= 1.194538D-01

 Vector   32  Occ=0.000000D+00  E= 1.447889D-01

 Vector   33  Occ=0.000000D+00  E= 1.536065D-01

 Vector   34  Occ=0.000000D+00  E= 1.639205D-01

 Vector   35  Occ=0.000000D+00  E= 1.684348D-01

 Vector   36  Occ=0.000000D+00  E= 1.754006D-01

 Vector   37  Occ=0.000000D+00  E= 1.984506D-01

 Vector   38  Occ=0.000000D+00  E= 2.047953D-01

 Vector   39  Occ=0.000000D+00  E= 2.093142D-01

 Vector   40  Occ=0.000000D+00  E= 2.983364D-01

 Vector   41  Occ=0.000000D+00  E= 3.175111D-01

 Vector   42  Occ=0.000000D+00  E= 3.227719D-01

 Vector   43  Occ=0.000000D+00  E= 3.646365D-01

 Vector   44  Occ=0.000000D+00  E= 3.711843D-01

 Vector   45  Occ=0.000000D+00  E= 4.237615D-01

 Vector   46  Occ=0.000000D+00  E= 4.266692D-01

 Vector   47  Occ=0.000000D+00  E= 4.487729D-01

 Vector   48  Occ=0.000000D+00  E= 4.637553D-01

 Vector   49  Occ=0.000000D+00  E= 4.927919D-01

 Vector   50  Occ=0.000000D+00  E= 5.023180D-01

     Multipole analysis of the density
     ---------------------------------

     L   x y z        total         alpha         beta         nuclear
     -   - - -        -----         -----         ----         -------
     0   0 0 0      1.000000     -9.000000     -9.000000     19.000000

     1   1 0 0      0.000156      0.000078      0.000078      0.000000
     1   0 1 0     -0.528473     -0.264236     -0.264236     -0.000000
     1   0 0 1     -0.007497     -0.003748     -0.003748      0.000000

     2   2 0 0     -9.246938    -10.820730    -10.820730     12.394523
     2   1 1 0     -0.006073     -0.003452     -0.003452      0.000831
     2   1 0 1      0.000493      0.000239      0.000239      0.000014
     2   0 2 0     -5.626932    -13.864127    -13.864127     22.101323
     2   0 1 1      0.114539      0.064601      0.064601     -0.014664

 Total times  cpu:       57.6s     wall:       62.2s
