 Output coordinates in angstroms (scale by  1.889725989 to convert to a.u.)

  No.       Tag          Charge          X              Y              Z
 ---- ---------------- ---------- -------------- -------------- --------------
    1 Co                  27.0000     0.00000000     0.00000000     0.00000000

         Total DFT energy =    -1382.771926458203

                    DFT Final Alpha Molecular Orbital Analysis
                    ------------------------------------------

 Vector    1  Occ=1.000000D+00  E=-2.766024D+02

 Vector    1  Occ=1.000000D+00  E=-2.766016D+02

 Vector    2  Occ=1.000000D+00  E=-3.235631D+01

 Vector    3  Occ=1.000000D+00  E=-2.802016D+01

 Vector    4  Occ=1.000000D+00  E=-2.801739D+01

 Vector    5  Occ=1.000000D+00  E=-2.801738D+01

 Vector    6  Occ=1.000000D+00  E=-3.491633D+00

 Vector    7  Occ=1.000000D+00  E=-2.196443D+00

 Vector    8  Occ=1.000000D+00  E=-2.196386D+00

 Vector    9  Occ=1.000000D+00  E=-2.192531D+00

 Vector   10  Occ=1.000000D+00  E=-1.458609D-01

 Vector   11  Occ=1.000000D+00  E=-1.458121D-01

 Vector   12  Occ=1.000000D+00  E=-1.383418D-01

 Vector   13  Occ=0.000000D+00  E=-1.253917D-01

 Vector   14  Occ=0.000000D+00  E=-7.871080D-02

 Vector   15  Occ=0.000000D+00  E=-7.862099D-02

 Vector   16  Occ=0.000000D+00  E= 1.862263D-02

 Vector   17  Occ=0.000000D+00  E= 2.407732D-02

 Vector   18  Occ=0.000000D+00  E= 2.409535D-02

 Vector   19  Occ=0.000000D+00  E= 6.799943D-02

 Vector   20  Occ=0.000000D+00  E= 2.064691D-01

 Vector   21  Occ=0.000000D+00  E= 2.072195D-01

 Vector   22  Occ=0.000000D+00  E= 2.072432D-01

 Vector   23  Occ=0.000000D+00  E= 2.156871D-01

 Vector   24  Occ=0.000000D+00  E= 2.157458D-01

 Vector   25  Occ=0.000000D+00  E= 3.557677D-01

 Vector   26  Occ=0.000000D+00  E= 5.003348D-01

 Vector   27  Occ=0.000000D+00  E= 5.078815D-01

 Vector   28  Occ=0.000000D+00  E= 5.079208D-01

 Vector   29  Occ=0.000000D+00  E= 9.610774D-01

 Vector   30  Occ=0.000000D+00  E= 9.626351D-01

 Vector   31  Occ=0.000000D+00  E= 9.627240D-01

 Vector   32  Occ=0.000000D+00  E= 9.885745D-01

 Vector   33  Occ=0.000000D+00  E= 9.886101D-01

 Vector   34  Occ=0.000000D+00  E= 9.992388D-01

 Vector   35  Occ=0.000000D+00  E= 2.405142D+00

 Vector   36  Occ=0.000000D+00  E= 2.405235D+00

 Vector   37  Occ=0.000000D+00  E= 2.405244D+00

 Vector   38  Occ=0.000000D+00  E= 2.423904D+00

 Vector   39  Occ=0.000000D+00  E= 2.675540D+00

 Vector   40  Occ=0.000000D+00  E= 2.702304D+00

 Vector   41  Occ=0.000000D+00  E= 2.702337D+00

 Vector   42  Occ=0.000000D+00  E= 2.706024D+00

 Vector   43  Occ=0.000000D+00  E= 2.730312D+00

 Vector   44  Occ=0.000000D+00  E= 2.730329D+00

 Vector   45  Occ=0.000000D+00  E= 2.738073D+00

 Vector   46  Occ=0.000000D+00  E= 3.402128D+00

 Vector   47  Occ=0.000000D+00  E= 3.402144D+00

 Vector   48  Occ=0.000000D+00  E= 3.410248D+00

 Vector   49  Occ=0.000000D+00  E= 3.449784D+00

 Vector   50  Occ=0.000000D+00  E= 3.449827D+00

 Vector   51  Occ=0.000000D+00  E= 8.393406D+00

 Vector   52  Occ=0.000000D+00  E= 9.264652D+00

 Vector   53  Occ=0.000000D+00  E= 9.264747D+00

 Vector   54  Occ=0.000000D+00  E= 9.264873D+00

 Vector   55  Occ=0.000000D+00  E= 9.264890D+00

 Vector   56  Occ=0.000000D+00  E= 9.270633D+00

 Vector   57  Occ=0.000000D+00  E= 9.272978D+00

 Vector   58  Occ=0.000000D+00  E= 9.286366D+00

 Vector   59  Occ=0.000000D+00  E= 9.286413D+00

 Vector   60  Occ=0.000000D+00  E= 1.001364D+01

 Vector   61  Occ=0.000000D+00  E= 1.001377D+01

 Vector   62  Occ=0.000000D+00  E= 1.001808D+01

 Vector   63  Occ=0.000000D+00  E= 1.002712D+01

 Vector   64  Occ=0.000000D+00  E= 1.002726D+01

 Vector   65  Occ=0.000000D+00  E= 1.002755D+01

 Vector   66  Occ=0.000000D+00  E= 1.003173D+01

 Vector   67  Occ=0.000000D+00  E= 1.003180D+01

 Vector   68  Occ=0.000000D+00  E= 1.004164D+01

 Vector   69  Occ=0.000000D+00  E= 1.045635D+01

 Vector   70  Occ=0.000000D+00  E= 1.049024D+01

 Vector   71  Occ=0.000000D+00  E= 1.049044D+01

 Vector   72  Occ=0.000000D+00  E= 1.049180D+01

 Vector   73  Occ=0.000000D+00  E= 1.051318D+01

 Vector   74  Occ=0.000000D+00  E= 1.051335D+01

 Vector   75  Occ=0.000000D+00  E= 1.051811D+01

 Vector   76  Occ=0.000000D+00  E= 2.275361D+01

 Vector   77  Occ=0.000000D+00  E= 2.275371D+01

 Vector   78  Occ=0.000000D+00  E= 2.275744D+01

 Vector   79  Occ=0.000000D+00  E= 6.072337D+01

 Vector   80  Occ=0.000000D+00  E= 1.772524D+02

 Total times  cpu:      217.5s     wall:      224.2s
