 Output coordinates in angstroms (scale by  1.889725989 to convert to a.u.)

  No.       Tag          Charge          X              Y              Z
 ---- ---------------- ---------- -------------- -------------- --------------
    1 Cr                  24.0000     0.00000000     0.00000000     0.00000000

         Total DFT energy =    -1044.467205157516

                    DFT Final Alpha Molecular Orbital Analysis
                    ------------------------------------------

 Vector    1  Occ=1.000000D+00  E=-2.148535D+02

 Vector    1  Occ=1.000000D+00  E=-2.148531D+02

 Vector    2  Occ=1.000000D+00  E=-2.420106D+01

 Vector    3  Occ=1.000000D+00  E=-2.051490D+01

 Vector    4  Occ=1.000000D+00  E=-2.051490D+01

 Vector    5  Occ=1.000000D+00  E=-2.051490D+01

 Vector    6  Occ=1.000000D+00  E=-2.564537D+00

 Vector    7  Occ=1.000000D+00  E=-1.537971D+00

 Vector    8  Occ=1.000000D+00  E=-1.537971D+00

 Vector    9  Occ=1.000000D+00  E=-1.537971D+00

 Vector   10  Occ=0.000000D+00  E=-5.235574D-02

 Vector   11  Occ=0.000000D+00  E= 1.498783D-02

 Vector   12  Occ=0.000000D+00  E= 1.498783D-02

 Vector   13  Occ=0.000000D+00  E= 1.498783D-02

 Vector   14  Occ=0.000000D+00  E= 1.498783D-02

 Vector   15  Occ=0.000000D+00  E= 1.498783D-02

 Vector   16  Occ=0.000000D+00  E= 7.111583D-02

 Vector   17  Occ=0.000000D+00  E= 7.111583D-02

 Vector   18  Occ=0.000000D+00  E= 7.111583D-02

 Vector   19  Occ=0.000000D+00  E= 1.144854D-01

 Vector   20  Occ=0.000000D+00  E= 1.749569D-01

 Vector   21  Occ=0.000000D+00  E= 1.749569D-01

 Vector   22  Occ=0.000000D+00  E= 1.749569D-01

 Vector   23  Occ=0.000000D+00  E= 1.749569D-01

 Vector   24  Occ=0.000000D+00  E= 1.749569D-01

 Vector   25  Occ=0.000000D+00  E= 2.480754D-01

 Vector   26  Occ=0.000000D+00  E= 3.557803D-01

 Vector   27  Occ=0.000000D+00  E= 3.557803D-01

 Vector   28  Occ=0.000000D+00  E= 3.557803D-01

 Vector   29  Occ=0.000000D+00  E= 5.545322D-01

 Vector   30  Occ=0.000000D+00  E= 5.545322D-01

 Vector   31  Occ=0.000000D+00  E= 5.545322D-01

 Vector   32  Occ=0.000000D+00  E= 5.545322D-01

 Vector   33  Occ=0.000000D+00  E= 5.545322D-01

 Vector   34  Occ=0.000000D+00  E= 8.737495D-01

 Vector   35  Occ=0.000000D+00  E= 1.142509D+00

 Vector   36  Occ=0.000000D+00  E= 1.387276D+00

 Vector   37  Occ=0.000000D+00  E= 1.387276D+00

 Vector   38  Occ=0.000000D+00  E= 1.387276D+00

 Vector   39  Occ=0.000000D+00  E= 1.596485D+00

 Vector   40  Occ=0.000000D+00  E= 1.596485D+00

 Vector   41  Occ=0.000000D+00  E= 1.596485D+00

 Vector   42  Occ=0.000000D+00  E= 1.596485D+00

 Vector   43  Occ=0.000000D+00  E= 1.596485D+00

 Vector   44  Occ=0.000000D+00  E= 1.596485D+00

 Vector   45  Occ=0.000000D+00  E= 1.596485D+00

 Vector   46  Occ=0.000000D+00  E= 1.916850D+00

 Vector   47  Occ=0.000000D+00  E= 1.916850D+00

 Vector   48  Occ=0.000000D+00  E= 1.916850D+00

 Vector   49  Occ=0.000000D+00  E= 1.916850D+00

 Vector   50  Occ=0.000000D+00  E= 1.916850D+00

 Vector   51  Occ=0.000000D+00  E= 3.960872D+00

 Vector   52  Occ=0.000000D+00  E= 4.024412D+00

 Vector   53  Occ=0.000000D+00  E= 4.024412D+00

 Vector   54  Occ=0.000000D+00  E= 4.024412D+00

 Vector   55  Occ=0.000000D+00  E= 5.115560D+00

 Vector   56  Occ=0.000000D+00  E= 5.115560D+00

 Vector   57  Occ=0.000000D+00  E= 5.115560D+00

 Vector   58  Occ=0.000000D+00  E= 5.115560D+00

 Vector   59  Occ=0.000000D+00  E= 5.115560D+00

 Vector   60  Occ=0.000000D+00  E= 5.699242D+00

 Vector   61  Occ=0.000000D+00  E= 5.699242D+00

 Vector   62  Occ=0.000000D+00  E= 5.699242D+00

 Vector   63  Occ=0.000000D+00  E= 5.699242D+00

 Vector   64  Occ=0.000000D+00  E= 5.699242D+00

 Vector   65  Occ=0.000000D+00  E= 5.699242D+00

 Vector   66  Occ=0.000000D+00  E= 5.699242D+00

 Vector   67  Occ=0.000000D+00  E= 5.699242D+00

 Vector   68  Occ=0.000000D+00  E= 5.699242D+00

 Vector   69  Occ=0.000000D+00  E= 6.335644D+00

 Vector   70  Occ=0.000000D+00  E= 6.335644D+00

 Vector   71  Occ=0.000000D+00  E= 6.335644D+00

 Vector   72  Occ=0.000000D+00  E= 6.335644D+00

 Vector   73  Occ=0.000000D+00  E= 6.335644D+00

 Vector   74  Occ=0.000000D+00  E= 6.335644D+00

 Vector   75  Occ=0.000000D+00  E= 6.335644D+00

 Vector   76  Occ=0.000000D+00  E= 1.200426D+01

 Vector   77  Occ=0.000000D+00  E= 1.200426D+01

 Vector   78  Occ=0.000000D+00  E= 1.200426D+01

 Vector   79  Occ=0.000000D+00  E= 3.153243D+01

 Vector   80  Occ=0.000000D+00  E= 3.959827D+01

 Total times  cpu:       15.0s     wall:       15.6s
