 Output coordinates in angstroms (scale by  1.889725989 to convert to a.u.)

  No.       Tag          Charge          X              Y              Z
 ---- ---------------- ---------- -------------- -------------- --------------
    1 Cu                  29.0000     0.00000000     0.00000000     0.00000000

         Total DFT energy =    -1640.527174890616

                    DFT Final Alpha Molecular Orbital Analysis
                    ------------------------------------------

 Vector    1  Occ=1.000000D+00  E=-3.220336D+02

 Vector    1  Occ=1.000000D+00  E=-3.220326D+02

 Vector    2  Occ=1.000000D+00  E=-3.833719D+01

 Vector    3  Occ=1.000000D+00  E=-3.355406D+01

 Vector    4  Occ=1.000000D+00  E=-3.355406D+01

 Vector    5  Occ=1.000000D+00  E=-3.355406D+01

 Vector    6  Occ=1.000000D+00  E=-4.123070D+00

 Vector    7  Occ=1.000000D+00  E=-2.634932D+00

 Vector    8  Occ=1.000000D+00  E=-2.634931D+00

 Vector    9  Occ=1.000000D+00  E=-2.634929D+00

 Vector   10  Occ=1.000000D+00  E=-1.822390D-01

 Vector   11  Occ=1.000000D+00  E=-1.822389D-01

 Vector   12  Occ=1.000000D+00  E=-1.822388D-01

 Vector   13  Occ=1.000000D+00  E=-1.822385D-01

 Vector   14  Occ=1.000000D+00  E=-1.822385D-01

 Vector   15  Occ=0.000000D+00  E=-1.328333D-01

 Vector   16  Occ=0.000000D+00  E= 3.492869D-02

 Vector   17  Occ=0.000000D+00  E= 3.493141D-02

 Vector   18  Occ=0.000000D+00  E= 3.493195D-02

 Vector   19  Occ=0.000000D+00  E= 5.900183D-02

 Vector   20  Occ=0.000000D+00  E= 1.851225D-01

 Vector   21  Occ=0.000000D+00  E= 1.851231D-01

 Vector   22  Occ=0.000000D+00  E= 1.851235D-01

 Vector   23  Occ=0.000000D+00  E= 1.851257D-01

 Vector   24  Occ=0.000000D+00  E= 1.851258D-01

 Vector   25  Occ=0.000000D+00  E= 2.927815D-01

 Vector   26  Occ=0.000000D+00  E= 5.556958D-01

 Vector   27  Occ=0.000000D+00  E= 5.557035D-01

 Vector   28  Occ=0.000000D+00  E= 5.557050D-01

 Vector   29  Occ=0.000000D+00  E= 8.786333D-01

 Vector   30  Occ=0.000000D+00  E= 8.786345D-01

 Vector   31  Occ=0.000000D+00  E= 8.786354D-01

 Vector   32  Occ=0.000000D+00  E= 8.786397D-01

 Vector   33  Occ=0.000000D+00  E= 8.786397D-01

 Vector   34  Occ=0.000000D+00  E= 9.295484D-01

 Vector   35  Occ=0.000000D+00  E= 2.075703D+00

 Vector   36  Occ=0.000000D+00  E= 2.844756D+00

 Vector   37  Occ=0.000000D+00  E= 2.844756D+00

 Vector   38  Occ=0.000000D+00  E= 2.844756D+00

 Vector   39  Occ=0.000000D+00  E= 3.380820D+00

 Vector   40  Occ=0.000000D+00  E= 3.380820D+00

 Vector   41  Occ=0.000000D+00  E= 3.380820D+00

 Vector   42  Occ=0.000000D+00  E= 3.380820D+00

 Vector   43  Occ=0.000000D+00  E= 3.380820D+00

 Vector   44  Occ=0.000000D+00  E= 3.380821D+00

 Vector   45  Occ=0.000000D+00  E= 3.380821D+00

 Vector   46  Occ=0.000000D+00  E= 3.430392D+00

 Vector   47  Occ=0.000000D+00  E= 3.430392D+00

 Vector   48  Occ=0.000000D+00  E= 3.430392D+00

 Vector   49  Occ=0.000000D+00  E= 3.430392D+00

 Vector   50  Occ=0.000000D+00  E= 3.430392D+00

 Vector   51  Occ=0.000000D+00  E= 8.810911D+00

 Vector   52  Occ=0.000000D+00  E= 1.089915D+01

 Vector   53  Occ=0.000000D+00  E= 1.089915D+01

 Vector   54  Occ=0.000000D+00  E= 1.089915D+01

 Vector   55  Occ=0.000000D+00  E= 1.089915D+01

 Vector   56  Occ=0.000000D+00  E= 1.089915D+01

 Vector   57  Occ=0.000000D+00  E= 1.115498D+01

 Vector   58  Occ=0.000000D+00  E= 1.115498D+01

 Vector   59  Occ=0.000000D+00  E= 1.115499D+01

 Vector   60  Occ=0.000000D+00  E= 1.291828D+01

 Vector   61  Occ=0.000000D+00  E= 1.291828D+01

 Vector   62  Occ=0.000000D+00  E= 1.291828D+01

 Vector   63  Occ=0.000000D+00  E= 1.291828D+01

 Vector   64  Occ=0.000000D+00  E= 1.291828D+01

 Vector   65  Occ=0.000000D+00  E= 1.291828D+01

 Vector   66  Occ=0.000000D+00  E= 1.291828D+01

 Vector   67  Occ=0.000000D+00  E= 1.291828D+01

 Vector   68  Occ=0.000000D+00  E= 1.291828D+01

 Vector   69  Occ=0.000000D+00  E= 1.300943D+01

 Vector   70  Occ=0.000000D+00  E= 1.300943D+01

 Vector   71  Occ=0.000000D+00  E= 1.300944D+01

 Vector   72  Occ=0.000000D+00  E= 1.300944D+01

 Vector   73  Occ=0.000000D+00  E= 1.300944D+01

 Vector   74  Occ=0.000000D+00  E= 1.300944D+01

 Vector   75  Occ=0.000000D+00  E= 1.300944D+01

 Vector   76  Occ=0.000000D+00  E= 2.423575D+01

 Vector   77  Occ=0.000000D+00  E= 2.929445D+01

 Vector   78  Occ=0.000000D+00  E= 2.929446D+01

 Vector   79  Occ=0.000000D+00  E= 2.929446D+01

 Vector   80  Occ=0.000000D+00  E= 6.716680D+01

 Total times  cpu:       53.3s     wall:       55.6s
