 Output coordinates in angstroms (scale by  1.889725989 to convert to a.u.)

  No.       Tag          Charge          X              Y              Z
 ---- ---------------- ---------- -------------- -------------- --------------
    1 F                    9.0000     0.00000000     0.00000000     0.00000000

         Total DFT energy =      -99.773647870906

                    DFT Final Alpha Molecular Orbital Analysis
                    ------------------------------------------

 Vector    1  Occ=1.000000D+00  E=-2.450839D+01

 Vector    2  Occ=1.000000D+00  E=-1.147218D+00

 Vector    3  Occ=1.000000D+00  E=-4.978519D-01

 Vector    4  Occ=1.000000D+00  E=-4.058631D-01

 Vector    5  Occ=1.000000D+00  E=-4.058631D-01

 Vector    6  Occ=0.000000D+00  E= 3.908311D-01

 Vector    7  Occ=0.000000D+00  E= 4.360813D-01

 Vector    8  Occ=0.000000D+00  E= 4.658497D-01

 Vector    9  Occ=0.000000D+00  E= 4.658497D-01

 Vector   10  Occ=0.000000D+00  E= 1.810828D+00

 Vector   11  Occ=0.000000D+00  E= 1.825975D+00

 Vector   12  Occ=0.000000D+00  E= 1.825975D+00

 Vector   13  Occ=0.000000D+00  E= 1.875974D+00

 Vector   14  Occ=0.000000D+00  E= 1.875974D+00

 Vector   15  Occ=0.000000D+00  E= 2.372708D+00

 Vector   16  Occ=0.000000D+00  E= 2.430340D+00

 Vector   17  Occ=0.000000D+00  E= 2.430340D+00

 Vector   18  Occ=0.000000D+00  E= 2.645218D+00

 Vector   19  Occ=0.000000D+00  E= 6.726809D+00

 Vector   20  Occ=0.000000D+00  E= 6.737749D+00

 Vector   21  Occ=0.000000D+00  E= 6.737749D+00

 Vector   22  Occ=0.000000D+00  E= 6.769921D+00

 Vector   23  Occ=0.000000D+00  E= 6.769921D+00

 Vector   24  Occ=0.000000D+00  E= 6.822842D+00

 Vector   25  Occ=0.000000D+00  E= 6.822842D+00

 Vector   26  Occ=0.000000D+00  E= 7.187783D+00

 Vector   27  Occ=0.000000D+00  E= 7.266795D+00

 Vector   28  Occ=0.000000D+00  E= 7.266795D+00

 Vector   29  Occ=0.000000D+00  E= 8.011479D+00

 Vector   30  Occ=0.000000D+00  E= 8.037437D+00

 Vector   31  Occ=0.000000D+00  E= 8.037437D+00

 Vector   32  Occ=0.000000D+00  E= 8.115305D+00

 Vector   33  Occ=0.000000D+00  E= 8.115305D+00

 Vector   34  Occ=0.000000D+00  E= 8.332045D+00

 Vector   35  Occ=0.000000D+00  E= 2.186020D+01

 Vector   36  Occ=0.000000D+00  E= 9.487992D+01

 Vector    1  Occ=1.000000D+00  E=-2.447739D+01

 Vector    2  Occ=1.000000D+00  E=-1.066991D+00

 Vector    3  Occ=1.000000D+00  E=-3.798385D-01

 Vector    4  Occ=1.000000D+00  E=-3.798384D-01

 Vector    5  Occ=0.000000D+00  E=-3.176674D-01

 Vector    6  Occ=0.000000D+00  E= 4.117820D-01

 Vector    7  Occ=0.000000D+00  E= 4.745708D-01

 Vector    8  Occ=0.000000D+00  E= 4.745708D-01

 Vector    9  Occ=0.000000D+00  E= 4.903458D-01

 Vector   10  Occ=0.000000D+00  E= 1.883140D+00

 Vector   11  Occ=0.000000D+00  E= 1.883140D+00

 Vector   12  Occ=0.000000D+00  E= 1.889484D+00

 Vector   13  Occ=0.000000D+00  E= 1.889484D+00

 Vector   14  Occ=0.000000D+00  E= 1.908945D+00

 Vector   15  Occ=0.000000D+00  E= 2.450024D+00

 Vector   16  Occ=0.000000D+00  E= 2.450024D+00

 Vector   17  Occ=0.000000D+00  E= 2.484412D+00

 Vector   18  Occ=0.000000D+00  E= 2.692668D+00

 Vector   19  Occ=0.000000D+00  E= 6.827728D+00

 Vector   20  Occ=0.000000D+00  E= 6.827730D+00

 Vector   21  Occ=0.000000D+00  E= 6.831445D+00

 Vector   22  Occ=0.000000D+00  E= 6.831446D+00

 Vector   23  Occ=0.000000D+00  E= 6.833840D+00

 Vector   24  Occ=0.000000D+00  E= 6.855184D+00

 Vector   25  Occ=0.000000D+00  E= 6.855184D+00

 Vector   26  Occ=0.000000D+00  E= 7.307177D+00

 Vector   27  Occ=0.000000D+00  E= 7.315206D+00

 Vector   28  Occ=0.000000D+00  E= 7.315206D+00

 Vector   29  Occ=0.000000D+00  E= 8.167932D+00

 Vector   30  Occ=0.000000D+00  E= 8.167934D+00

 Vector   31  Occ=0.000000D+00  E= 8.186822D+00

 Vector   32  Occ=0.000000D+00  E= 8.186825D+00

 Vector   33  Occ=0.000000D+00  E= 8.202564D+00

 Vector   34  Occ=0.000000D+00  E= 8.398853D+00

 Vector   35  Occ=0.000000D+00  E= 2.196443D+01

 Vector   36  Occ=0.000000D+00  E= 9.494193D+01

 Total times  cpu:       12.8s     wall:       13.3s
