 Output coordinates in angstroms (scale by  1.889725989 to convert to a.u.)

  No.       Tag          Charge          X              Y              Z
 ---- ---------------- ---------- -------------- -------------- --------------
    1 H                    1.0000     0.00000000     0.00000000     0.00000000

         Total DFT energy =       -0.499898441959

                    DFT Final Alpha Molecular Orbital Analysis
                    ------------------------------------------

 Vector    1  Occ=1.000000D+00  E=-2.846065D-01

 Vector    2  Occ=0.000000D+00  E= 2.083840D-01

 Vector    3  Occ=0.000000D+00  E= 5.470949D-01

 Vector    4  Occ=0.000000D+00  E= 5.470949D-01

 Vector    5  Occ=0.000000D+00  E= 5.470949D-01

 Vector    6  Occ=0.000000D+00  E= 1.506678D+00

 Vector    7  Occ=0.000000D+00  E= 3.191553D+00

 Vector    8  Occ=0.000000D+00  E= 3.191553D+00

 Vector    9  Occ=0.000000D+00  E= 3.191553D+00

 Vector   10  Occ=0.000000D+00  E= 3.191553D+00

 Vector   11  Occ=0.000000D+00  E= 3.191553D+00

 Vector   12  Occ=0.000000D+00  E= 3.645020D+00

 Vector   13  Occ=0.000000D+00  E= 3.645020D+00

 Vector   14  Occ=0.000000D+00  E= 3.645020D+00

 Vector   15  Occ=0.000000D+00  E= 4.460025D+00

 Vector    1  Occ=0.000000D+00  E=-4.998099D-01

 Vector    2  Occ=0.000000D+00  E= 1.340415D-02

 Vector    3  Occ=0.000000D+00  E= 2.984570D-01

 Vector    4  Occ=0.000000D+00  E= 2.984570D-01

 Vector    5  Occ=0.000000D+00  E= 2.984570D-01

 Vector    6  Occ=0.000000D+00  E= 1.252372D+00

 Vector    7  Occ=0.000000D+00  E= 2.824504D+00

 Vector    8  Occ=0.000000D+00  E= 2.824504D+00

 Vector    9  Occ=0.000000D+00  E= 2.824504D+00

 Vector   10  Occ=0.000000D+00  E= 2.824504D+00

 Vector   11  Occ=0.000000D+00  E= 2.824504D+00

 Vector   12  Occ=0.000000D+00  E= 3.199249D+00

 Vector   13  Occ=0.000000D+00  E= 3.199249D+00

 Vector   14  Occ=0.000000D+00  E= 3.199249D+00

 Vector   15  Occ=0.000000D+00  E= 4.031493D+00

 Total times  cpu:        6.1s     wall:        6.3s
