 Output coordinates in angstroms (scale by  1.889725989 to convert to a.u.)

  No.       Tag          Charge          X              Y              Z
 ---- ---------------- ---------- -------------- -------------- --------------
    1 Mn                  25.0000     0.00000000     0.00000000     0.00000000

         Total DFT energy =    -1150.997810048877

                    DFT Final Alpha Molecular Orbital Analysis
                    ------------------------------------------

 Vector    1  Occ=1.000000D+00  E=-2.347171D+02

 Vector    1  Occ=1.000000D+00  E=-2.347174D+02

 Vector    2  Occ=1.000000D+00  E=-2.695110D+01

 Vector    3  Occ=1.000000D+00  E=-2.305067D+01

 Vector    4  Occ=1.000000D+00  E=-2.304998D+01

 Vector    5  Occ=1.000000D+00  E=-2.304992D+01

 Vector    6  Occ=1.000000D+00  E=-2.988616D+00

 Vector    7  Occ=1.000000D+00  E=-1.871507D+00

 Vector    8  Occ=1.000000D+00  E=-1.871465D+00

 Vector    9  Occ=1.000000D+00  E=-1.868268D+00

 Vector   10  Occ=1.000000D+00  E=-1.581458D-01

 Vector   11  Occ=0.000000D+00  E=-1.308861D-01

 Vector   12  Occ=0.000000D+00  E=-1.283505D-01

 Vector   13  Occ=0.000000D+00  E=-1.283497D-01

 Vector   14  Occ=0.000000D+00  E=-1.277933D-01

 Vector   15  Occ=0.000000D+00  E=-1.276658D-01

 Vector   16  Occ=0.000000D+00  E=-2.892933D-02

 Vector   17  Occ=0.000000D+00  E=-2.059829D-02

 Vector   18  Occ=0.000000D+00  E=-2.038782D-02

 Vector   19  Occ=0.000000D+00  E= 4.010755D-02

 Vector   20  Occ=0.000000D+00  E= 1.588252D-01

 Vector   21  Occ=0.000000D+00  E= 1.592036D-01

 Vector   22  Occ=0.000000D+00  E= 1.592581D-01

 Vector   23  Occ=0.000000D+00  E= 1.615499D-01

 Vector   24  Occ=0.000000D+00  E= 1.615507D-01

 Vector   25  Occ=0.000000D+00  E= 2.871906D-01

 Vector   26  Occ=0.000000D+00  E= 3.732918D-01

 Vector   27  Occ=0.000000D+00  E= 3.838565D-01

 Vector   28  Occ=0.000000D+00  E= 3.840871D-01

 Vector   29  Occ=0.000000D+00  E= 7.899987D-01

 Vector   30  Occ=0.000000D+00  E= 8.049515D-01

 Vector   31  Occ=0.000000D+00  E= 8.061232D-01

 Vector   32  Occ=0.000000D+00  E= 8.062961D-01

 Vector   33  Occ=0.000000D+00  E= 8.128141D-01

 Vector   34  Occ=0.000000D+00  E= 8.128152D-01

 Vector   35  Occ=0.000000D+00  E= 1.770623D+00

 Vector   36  Occ=0.000000D+00  E= 1.770772D+00

 Vector   37  Occ=0.000000D+00  E= 1.777049D+00

 Vector   38  Occ=0.000000D+00  E= 1.996956D+00

 Vector   39  Occ=0.000000D+00  E= 1.998128D+00

 Vector   40  Occ=0.000000D+00  E= 1.998192D+00

 Vector   41  Occ=0.000000D+00  E= 1.999549D+00

 Vector   42  Occ=0.000000D+00  E= 1.999549D+00

 Vector   43  Occ=0.000000D+00  E= 2.001375D+00

 Vector   44  Occ=0.000000D+00  E= 2.001375D+00

 Vector   45  Occ=0.000000D+00  E= 2.018797D+00

 Vector   46  Occ=0.000000D+00  E= 2.733212D+00

 Vector   47  Occ=0.000000D+00  E= 2.733214D+00

 Vector   48  Occ=0.000000D+00  E= 2.738991D+00

 Vector   49  Occ=0.000000D+00  E= 2.739942D+00

 Vector   50  Occ=0.000000D+00  E= 2.739997D+00

 Vector   51  Occ=0.000000D+00  E= 5.909736D+00

 Vector   52  Occ=0.000000D+00  E= 5.909957D+00

 Vector   53  Occ=0.000000D+00  E= 5.919493D+00

 Vector   54  Occ=0.000000D+00  E= 6.076474D+00

 Vector   55  Occ=0.000000D+00  E= 6.999908D+00

 Vector   56  Occ=0.000000D+00  E= 6.999910D+00

 Vector   57  Occ=0.000000D+00  E= 7.008879D+00

 Vector   58  Occ=0.000000D+00  E= 7.008993D+00

 Vector   59  Occ=0.000000D+00  E= 7.009781D+00

 Vector   60  Occ=0.000000D+00  E= 7.033390D+00

 Vector   61  Occ=0.000000D+00  E= 7.033390D+00

 Vector   62  Occ=0.000000D+00  E= 7.037115D+00

 Vector   63  Occ=0.000000D+00  E= 7.037115D+00

 Vector   64  Occ=0.000000D+00  E= 7.038912D+00

 Vector   65  Occ=0.000000D+00  E= 7.038912D+00

 Vector   66  Occ=0.000000D+00  E= 7.039816D+00

 Vector   67  Occ=0.000000D+00  E= 7.039827D+00

 Vector   68  Occ=0.000000D+00  E= 7.040135D+00

 Vector   69  Occ=0.000000D+00  E= 7.887844D+00

 Vector   70  Occ=0.000000D+00  E= 7.887844D+00

 Vector   71  Occ=0.000000D+00  E= 7.892455D+00

 Vector   72  Occ=0.000000D+00  E= 7.892549D+00

 Vector   73  Occ=0.000000D+00  E= 7.892554D+00

 Vector   74  Occ=0.000000D+00  E= 7.892771D+00

 Vector   75  Occ=0.000000D+00  E= 7.892778D+00

 Vector   76  Occ=0.000000D+00  E= 1.626311D+01

 Vector   77  Occ=0.000000D+00  E= 1.626313D+01

 Vector   78  Occ=0.000000D+00  E= 1.626732D+01

 Vector   79  Occ=0.000000D+00  E= 5.252592D+01

 Vector   80  Occ=0.000000D+00  E= 1.030794D+02

 Total times  cpu:      490.7s     wall:      977.1s
