 Output coordinates in angstroms (scale by  1.889725989 to convert to a.u.)

  No.       Tag          Charge          X              Y              Z
 ---- ---------------- ---------- -------------- -------------- --------------
    1 O                    8.0000     0.00000000     0.00000000     0.00000000

         Total DFT energy =      -75.105206970193

                    DFT Final Alpha Molecular Orbital Analysis
                    ------------------------------------------

 Vector    1  Occ=1.000000D+00  E=-1.902957D+01

 Vector    2  Occ=1.000000D+00  E=-9.448891D-01

 Vector    3  Occ=1.000000D+00  E=-4.024725D-01

 Vector    4  Occ=1.000000D+00  E=-4.024725D-01

 Vector    5  Occ=1.000000D+00  E=-3.223656D-01

 Vector    6  Occ=0.000000D+00  E= 2.739898D-01

 Vector    7  Occ=0.000000D+00  E= 3.437616D-01

 Vector    8  Occ=0.000000D+00  E= 3.437616D-01

 Vector    9  Occ=0.000000D+00  E= 3.702514D-01

 Vector   10  Occ=0.000000D+00  E= 1.321344D+00

 Vector   11  Occ=0.000000D+00  E= 1.321344D+00

 Vector   12  Occ=0.000000D+00  E= 1.363443D+00

 Vector   13  Occ=0.000000D+00  E= 1.363443D+00

 Vector   14  Occ=0.000000D+00  E= 1.379185D+00

 Vector   15  Occ=0.000000D+00  E= 1.860630D+00

 Vector   16  Occ=0.000000D+00  E= 1.860630D+00

 Vector   17  Occ=0.000000D+00  E= 1.909333D+00

 Vector   18  Occ=0.000000D+00  E= 1.942273D+00

 Vector   19  Occ=0.000000D+00  E= 4.959680D+00

 Vector   20  Occ=0.000000D+00  E= 4.959680D+00

 Vector   21  Occ=0.000000D+00  E= 5.003737D+00

 Vector   22  Occ=0.000000D+00  E= 5.003737D+00

 Vector   23  Occ=0.000000D+00  E= 5.030342D+00

 Vector   24  Occ=0.000000D+00  E= 5.030342D+00

 Vector   25  Occ=0.000000D+00  E= 5.039285D+00

 Vector   26  Occ=0.000000D+00  E= 5.474161D+00

 Vector   27  Occ=0.000000D+00  E= 5.474161D+00

 Vector   28  Occ=0.000000D+00  E= 5.540645D+00

 Vector   29  Occ=0.000000D+00  E= 5.944381D+00

 Vector   30  Occ=0.000000D+00  E= 5.944381D+00

 Vector   31  Occ=0.000000D+00  E= 6.010253D+00

 Vector   32  Occ=0.000000D+00  E= 6.010253D+00

 Vector   33  Occ=0.000000D+00  E= 6.032048D+00

 Vector   34  Occ=0.000000D+00  E= 6.142256D+00

 Vector   35  Occ=0.000000D+00  E= 1.618702D+01

 Vector   36  Occ=0.000000D+00  E= 7.123316D+01

 Vector    1  Occ=1.000000D+00  E=-1.897616D+01

 Vector    2  Occ=1.000000D+00  E=-7.998351D-01

 Vector    3  Occ=1.000000D+00  E=-2.863541D-01

 Vector    4  Occ=0.000000D+00  E=-2.109357D-01

 Vector    5  Occ=0.000000D+00  E=-2.109349D-01

 Vector    6  Occ=0.000000D+00  E= 3.125128D-01

 Vector    7  Occ=0.000000D+00  E= 3.851208D-01

 Vector    8  Occ=0.000000D+00  E= 4.089845D-01

 Vector    9  Occ=0.000000D+00  E= 4.089851D-01

 Vector   10  Occ=0.000000D+00  E= 1.424490D+00

 Vector   11  Occ=0.000000D+00  E= 1.424491D+00

 Vector   12  Occ=0.000000D+00  E= 1.434653D+00

 Vector   13  Occ=0.000000D+00  E= 1.450216D+00

 Vector   14  Occ=0.000000D+00  E= 1.450217D+00

 Vector   15  Occ=0.000000D+00  E= 1.945049D+00

 Vector   16  Occ=0.000000D+00  E= 1.984933D+00

 Vector   17  Occ=0.000000D+00  E= 1.984936D+00

 Vector   18  Occ=0.000000D+00  E= 2.030395D+00

 Vector   19  Occ=0.000000D+00  E= 5.106080D+00

 Vector   20  Occ=0.000000D+00  E= 5.106080D+00

 Vector   21  Occ=0.000000D+00  E= 5.108995D+00

 Vector   22  Occ=0.000000D+00  E= 5.108999D+00

 Vector   23  Occ=0.000000D+00  E= 5.137806D+00

 Vector   24  Occ=0.000000D+00  E= 5.138989D+00

 Vector   25  Occ=0.000000D+00  E= 5.138989D+00

 Vector   26  Occ=0.000000D+00  E= 5.616307D+00

 Vector   27  Occ=0.000000D+00  E= 5.616316D+00

 Vector   28  Occ=0.000000D+00  E= 5.658393D+00

 Vector   29  Occ=0.000000D+00  E= 6.204061D+00

 Vector   30  Occ=0.000000D+00  E= 6.204061D+00

 Vector   31  Occ=0.000000D+00  E= 6.205096D+00

 Vector   32  Occ=0.000000D+00  E= 6.210382D+00

 Vector   33  Occ=0.000000D+00  E= 6.210405D+00

 Vector   34  Occ=0.000000D+00  E= 6.266081D+00

 Vector   35  Occ=0.000000D+00  E= 1.637917D+01

 Vector   36  Occ=0.000000D+00  E= 7.135214D+01

 Total times  cpu:       11.1s     wall:       11.5s
