 Output coordinates in angstroms (scale by  1.889725989 to convert to a.u.)

  No.       Tag          Charge          X              Y              Z
 ---- ---------------- ---------- -------------- -------------- --------------
    1 Sc                  21.0000     0.00000000     0.00000000     0.00000000

         Total DFT energy =     -760.632451604737

                    DFT Final Alpha Molecular Orbital Analysis
                    ------------------------------------------

 Vector    1  Occ=1.000000D+00  E=-1.610412D+02

 Vector    1  Occ=1.000000D+00  E=-1.610412D+02

 Vector    2  Occ=1.000000D+00  E=-1.731039D+01

 Vector    3  Occ=1.000000D+00  E=-1.426147D+01

 Vector    4  Occ=1.000000D+00  E=-1.424735D+01

 Vector    5  Occ=1.000000D+00  E=-1.424734D+01

 Vector    6  Occ=1.000000D+00  E=-1.982003D+00

 Vector    7  Occ=1.000000D+00  E=-1.224111D+00

 Vector    8  Occ=1.000000D+00  E=-1.189079D+00

 Vector    9  Occ=1.000000D+00  E=-1.189074D+00

 Vector   10  Occ=1.000000D+00  E=-1.422065D-01

 Vector   11  Occ=0.000000D+00  E=-9.184604D-02

 Vector   12  Occ=0.000000D+00  E=-8.695560D-02

 Vector   13  Occ=0.000000D+00  E=-8.695481D-02

 Vector   14  Occ=0.000000D+00  E=-7.093190D-02

 Vector   15  Occ=0.000000D+00  E=-5.787875D-02

 Vector   16  Occ=0.000000D+00  E=-5.150618D-02

 Vector   17  Occ=0.000000D+00  E=-2.884378D-02

 Vector   18  Occ=0.000000D+00  E=-2.884088D-02

 Vector   19  Occ=0.000000D+00  E= 4.129796D-02

 Vector   20  Occ=0.000000D+00  E= 6.226113D-02

 Vector   21  Occ=0.000000D+00  E= 6.281810D-02

 Vector   22  Occ=0.000000D+00  E= 6.282027D-02

 Vector   23  Occ=0.000000D+00  E= 7.051731D-02

 Vector   24  Occ=0.000000D+00  E= 7.443950D-02

 Vector   25  Occ=0.000000D+00  E= 1.243271D-01

 Vector   26  Occ=0.000000D+00  E= 1.441244D-01

 Vector   27  Occ=0.000000D+00  E= 1.441258D-01

 Vector   28  Occ=0.000000D+00  E= 2.891420D-01

 Vector   29  Occ=0.000000D+00  E= 2.934405D-01

 Vector   30  Occ=0.000000D+00  E= 2.941593D-01

 Vector   31  Occ=0.000000D+00  E= 2.941631D-01

 Vector   32  Occ=0.000000D+00  E= 2.952603D-01

 Vector   33  Occ=0.000000D+00  E= 2.952626D-01

 Vector   34  Occ=0.000000D+00  E= 2.957689D-01

 Vector   35  Occ=0.000000D+00  E= 3.001562D-01

 Vector   36  Occ=0.000000D+00  E= 3.052977D-01

 Vector   37  Occ=0.000000D+00  E= 3.109266D-01

 Vector   38  Occ=0.000000D+00  E= 3.188676D-01

 Vector   39  Occ=0.000000D+00  E= 3.213337D-01

 Vector   40  Occ=0.000000D+00  E= 3.213353D-01

 Vector   41  Occ=0.000000D+00  E= 3.300485D-01

 Vector   42  Occ=0.000000D+00  E= 5.067924D-01

 Vector   43  Occ=0.000000D+00  E= 5.323384D-01

 Vector   44  Occ=0.000000D+00  E= 5.323394D-01

 Vector   45  Occ=0.000000D+00  E= 8.070600D-01

 Vector   46  Occ=0.000000D+00  E= 8.450197D-01

 Vector   47  Occ=0.000000D+00  E= 8.485790D-01

 Vector   48  Occ=0.000000D+00  E= 8.485797D-01

 Vector   49  Occ=0.000000D+00  E= 8.659159D-01

 Vector   50  Occ=0.000000D+00  E= 8.731791D-01

 Vector   51  Occ=0.000000D+00  E= 1.030768D+00

 Vector   52  Occ=0.000000D+00  E= 1.031917D+00

 Vector   53  Occ=0.000000D+00  E= 1.033747D+00

 Vector   54  Occ=0.000000D+00  E= 1.034273D+00

 Vector   55  Occ=0.000000D+00  E= 1.034274D+00

 Vector   56  Occ=0.000000D+00  E= 1.046080D+00

 Vector   57  Occ=0.000000D+00  E= 1.046081D+00

 Vector   58  Occ=0.000000D+00  E= 1.056349D+00

 Vector   59  Occ=0.000000D+00  E= 1.062462D+00

 Vector   60  Occ=0.000000D+00  E= 1.297701D+00

 Vector   61  Occ=0.000000D+00  E= 1.299821D+00

 Vector   62  Occ=0.000000D+00  E= 1.299823D+00

 Vector   63  Occ=0.000000D+00  E= 1.310311D+00

 Vector   64  Occ=0.000000D+00  E= 1.318309D+00

 Vector   65  Occ=0.000000D+00  E= 1.327686D+00

 Vector   66  Occ=0.000000D+00  E= 1.327688D+00

 Vector   67  Occ=0.000000D+00  E= 1.437834D+00

 Vector   68  Occ=0.000000D+00  E= 1.457889D+00

 Vector   69  Occ=0.000000D+00  E= 1.457893D+00

 Vector   70  Occ=0.000000D+00  E= 1.738378D+00

 Vector   71  Occ=0.000000D+00  E= 2.059816D+00

 Vector   72  Occ=0.000000D+00  E= 2.059820D+00

 Vector   73  Occ=0.000000D+00  E= 2.060790D+00

 Vector   74  Occ=0.000000D+00  E= 2.070217D+00

 Vector   75  Occ=0.000000D+00  E= 2.085837D+00

 Vector   76  Occ=0.000000D+00  E= 4.143297D+00

 Vector   77  Occ=0.000000D+00  E= 4.160486D+00

 Vector   78  Occ=0.000000D+00  E= 4.160492D+00

 Vector   79  Occ=0.000000D+00  E= 5.246465D+00

 Vector   80  Occ=0.000000D+00  E= 4.720333D+01

 Total times  cpu:      385.1s     wall:      773.8s
