 Output coordinates in angstroms (scale by  1.889725989 to convert to a.u.)

  No.       Tag          Charge          X              Y              Z
 ---- ---------------- ---------- -------------- -------------- --------------
    1 Ti                  22.0000     0.00000000     0.00000000     0.00000000

         Total DFT energy =     -849.362367094743

                    DFT Final Alpha Molecular Orbital Analysis
                    ------------------------------------------

 Vector    1  Occ=1.000000D+00  E=-1.781896D+02

 Vector    1  Occ=1.000000D+00  E=-1.781896D+02

 Vector    2  Occ=1.000000D+00  E=-1.957078D+01

 Vector    3  Occ=1.000000D+00  E=-1.631167D+01

 Vector    4  Occ=1.000000D+00  E=-1.631136D+01

 Vector    5  Occ=1.000000D+00  E=-1.628862D+01

 Vector    6  Occ=1.000000D+00  E=-2.242212D+00

 Vector    7  Occ=1.000000D+00  E=-1.395411D+00

 Vector    8  Occ=1.000000D+00  E=-1.394779D+00

 Vector    9  Occ=1.000000D+00  E=-1.345611D+00

 Vector   10  Occ=1.000000D+00  E=-1.487652D-01

 Vector   11  Occ=0.000000D+00  E=-1.304161D-01

 Vector   12  Occ=0.000000D+00  E=-1.303885D-01

 Vector   13  Occ=0.000000D+00  E=-9.927012D-02

 Vector   14  Occ=0.000000D+00  E=-7.941386D-02

 Vector   15  Occ=0.000000D+00  E=-7.931977D-02

 Vector   16  Occ=0.000000D+00  E=-4.676759D-02

 Vector   17  Occ=0.000000D+00  E=-4.588269D-02

 Vector   18  Occ=0.000000D+00  E=-1.874446D-02

 Vector   19  Occ=0.000000D+00  E= 2.018986D-02

 Vector   20  Occ=0.000000D+00  E= 8.428758D-02

 Vector   21  Occ=0.000000D+00  E= 8.428897D-02

 Vector   22  Occ=0.000000D+00  E= 9.784180D-02

 Vector   23  Occ=0.000000D+00  E= 9.790036D-02

 Vector   24  Occ=0.000000D+00  E= 9.818858D-02

 Vector   25  Occ=0.000000D+00  E= 1.823875D-01

 Vector   26  Occ=0.000000D+00  E= 1.830468D-01

 Vector   27  Occ=0.000000D+00  E= 1.853631D-01

 Vector   28  Occ=0.000000D+00  E= 2.045571D-01

 Vector   29  Occ=0.000000D+00  E= 4.666326D-01

 Vector   30  Occ=0.000000D+00  E= 4.666369D-01

 Vector   31  Occ=0.000000D+00  E= 4.926246D-01

 Vector   32  Occ=0.000000D+00  E= 4.977786D-01

 Vector   33  Occ=0.000000D+00  E= 4.982311D-01

 Vector   34  Occ=0.000000D+00  E= 6.930598D-01

 Vector   35  Occ=0.000000D+00  E= 6.930602D-01

 Vector   36  Occ=0.000000D+00  E= 7.094704D-01

 Vector   37  Occ=0.000000D+00  E= 7.104757D-01

 Vector   38  Occ=0.000000D+00  E= 7.229260D-01

 Vector   39  Occ=0.000000D+00  E= 7.229776D-01

 Vector   40  Occ=0.000000D+00  E= 7.283896D-01

 Vector   41  Occ=0.000000D+00  E= 7.323568D-01

 Vector   42  Occ=0.000000D+00  E= 7.326666D-01

 Vector   43  Occ=0.000000D+00  E= 7.393387D-01

 Vector   44  Occ=0.000000D+00  E= 8.903919D-01

 Vector   45  Occ=0.000000D+00  E= 1.112443D+00

 Vector   46  Occ=0.000000D+00  E= 1.811205D+00

 Vector   47  Occ=0.000000D+00  E= 1.811215D+00

 Vector   48  Occ=0.000000D+00  E= 1.827776D+00

 Vector   49  Occ=0.000000D+00  E= 1.843298D+00

 Vector   50  Occ=0.000000D+00  E= 1.843485D+00

 Vector   51  Occ=0.000000D+00  E= 1.865604D+00

 Vector   52  Occ=0.000000D+00  E= 1.865691D+00

 Vector   53  Occ=0.000000D+00  E= 1.893137D+00

 Vector   54  Occ=0.000000D+00  E= 2.589725D+00

 Vector   55  Occ=0.000000D+00  E= 2.589726D+00

 Vector   56  Occ=0.000000D+00  E= 2.619596D+00

 Vector   57  Occ=0.000000D+00  E= 2.619596D+00

 Vector   58  Occ=0.000000D+00  E= 2.620215D+00

 Vector   59  Occ=0.000000D+00  E= 2.622464D+00

 Vector   60  Occ=0.000000D+00  E= 2.622562D+00

 Vector   61  Occ=0.000000D+00  E= 2.623542D+00

 Vector   62  Occ=0.000000D+00  E= 2.623544D+00

 Vector   63  Occ=0.000000D+00  E= 2.899360D+00

 Vector   64  Occ=0.000000D+00  E= 2.899361D+00

 Vector   65  Occ=0.000000D+00  E= 2.939554D+00

 Vector   66  Occ=0.000000D+00  E= 2.946194D+00

 Vector   67  Occ=0.000000D+00  E= 2.946415D+00

 Vector   68  Occ=0.000000D+00  E= 2.949088D+00

 Vector   69  Occ=0.000000D+00  E= 2.949092D+00

 Vector   70  Occ=0.000000D+00  E= 4.118815D+00

 Vector   71  Occ=0.000000D+00  E= 4.748753D+00

 Vector   72  Occ=0.000000D+00  E= 4.749365D+00

 Vector   73  Occ=0.000000D+00  E= 4.773570D+00

 Vector   74  Occ=0.000000D+00  E= 4.964847D+00

 Vector   75  Occ=0.000000D+00  E= 4.964856D+00

 Vector   76  Occ=0.000000D+00  E= 4.981510D+00

 Vector   77  Occ=0.000000D+00  E= 5.001982D+00

 Vector   78  Occ=0.000000D+00  E= 5.002405D+00

 Vector   79  Occ=0.000000D+00  E= 3.235593D+01

 Vector   80  Occ=0.000000D+00  E= 3.767196D+01

 Total times  cpu:      205.3s     wall:      412.1s
