 Output coordinates in angstroms (scale by  1.889725989 to convert to a.u.)

  No.       Tag          Charge          X              Y              Z
 ---- ---------------- ---------- -------------- -------------- --------------
    1 V                   23.0000     0.00000000     0.00000000     0.00000000

         Total DFT energy =     -943.917732256541

                    DFT Final Alpha Molecular Orbital Analysis
                    ------------------------------------------

 Vector    1  Occ=1.000000D+00  E=-1.961322D+02

 Vector    1  Occ=1.000000D+00  E=-1.961325D+02

 Vector    2  Occ=1.000000D+00  E=-2.187341D+01

 Vector    3  Occ=1.000000D+00  E=-1.839917D+01

 Vector    4  Occ=1.000000D+00  E=-1.839563D+01

 Vector    5  Occ=1.000000D+00  E=-1.839543D+01

 Vector    6  Occ=1.000000D+00  E=-2.447534D+00

 Vector    7  Occ=1.000000D+00  E=-1.510011D+00

 Vector    8  Occ=1.000000D+00  E=-1.500140D+00

 Vector    9  Occ=1.000000D+00  E=-1.498551D+00

 Vector   10  Occ=1.000000D+00  E=-1.441988D-01

 Vector   11  Occ=0.000000D+00  E=-1.103986D-01

 Vector   12  Occ=0.000000D+00  E=-9.498019D-02

 Vector   13  Occ=0.000000D+00  E=-7.927262D-02

 Vector   14  Occ=0.000000D+00  E=-7.346606D-02

 Vector   15  Occ=0.000000D+00  E=-6.918455D-02

 Vector   16  Occ=0.000000D+00  E=-3.981190D-02

 Vector   17  Occ=0.000000D+00  E=-2.629455D-02

 Vector   18  Occ=0.000000D+00  E=-1.039372D-02

 Vector   19  Occ=0.000000D+00  E= 2.958780D-02

 Vector   20  Occ=0.000000D+00  E= 1.107625D-01

 Vector   21  Occ=0.000000D+00  E= 1.162631D-01

 Vector   22  Occ=0.000000D+00  E= 1.226423D-01

 Vector   23  Occ=0.000000D+00  E= 1.240373D-01

 Vector   24  Occ=0.000000D+00  E= 1.266701D-01

 Vector   25  Occ=0.000000D+00  E= 2.315160D-01

 Vector   26  Occ=0.000000D+00  E= 2.542735D-01

 Vector   27  Occ=0.000000D+00  E= 2.667900D-01

 Vector   28  Occ=0.000000D+00  E= 2.788419D-01

 Vector   29  Occ=0.000000D+00  E= 5.885112D-01

 Vector   30  Occ=0.000000D+00  E= 6.022534D-01

 Vector   31  Occ=0.000000D+00  E= 6.084601D-01

 Vector   32  Occ=0.000000D+00  E= 6.122742D-01

 Vector   33  Occ=0.000000D+00  E= 6.188917D-01

 Vector   34  Occ=0.000000D+00  E= 7.084369D-01

 Vector   35  Occ=0.000000D+00  E= 1.063118D+00

 Vector   36  Occ=0.000000D+00  E= 1.067894D+00

 Vector   37  Occ=0.000000D+00  E= 1.077178D+00

 Vector   38  Occ=0.000000D+00  E= 1.123390D+00

 Vector   39  Occ=0.000000D+00  E= 1.125312D+00

 Vector   40  Occ=0.000000D+00  E= 1.136945D+00

 Vector   41  Occ=0.000000D+00  E= 1.146389D+00

 Vector   42  Occ=0.000000D+00  E= 1.147340D+00

 Vector   43  Occ=0.000000D+00  E= 1.147638D+00

 Vector   44  Occ=0.000000D+00  E= 1.150979D+00

 Vector   45  Occ=0.000000D+00  E= 1.409194D+00

 Vector   46  Occ=0.000000D+00  E= 2.130705D+00

 Vector   47  Occ=0.000000D+00  E= 2.138833D+00

 Vector   48  Occ=0.000000D+00  E= 2.151624D+00

 Vector   49  Occ=0.000000D+00  E= 2.152606D+00

 Vector   50  Occ=0.000000D+00  E= 2.158430D+00

 Vector   51  Occ=0.000000D+00  E= 2.870772D+00

 Vector   52  Occ=0.000000D+00  E= 2.871981D+00

 Vector   53  Occ=0.000000D+00  E= 2.882808D+00

 Vector   54  Occ=0.000000D+00  E= 4.077605D+00

 Vector   55  Occ=0.000000D+00  E= 4.103624D+00

 Vector   56  Occ=0.000000D+00  E= 4.104982D+00

 Vector   57  Occ=0.000000D+00  E= 4.111731D+00

 Vector   58  Occ=0.000000D+00  E= 4.115070D+00

 Vector   59  Occ=0.000000D+00  E= 4.119928D+00

 Vector   60  Occ=0.000000D+00  E= 4.122937D+00

 Vector   61  Occ=0.000000D+00  E= 4.129087D+00

 Vector   62  Occ=0.000000D+00  E= 4.130881D+00

 Vector   63  Occ=0.000000D+00  E= 4.133125D+00

 Vector   64  Occ=0.000000D+00  E= 4.566998D+00

 Vector   65  Occ=0.000000D+00  E= 4.573377D+00

 Vector   66  Occ=0.000000D+00  E= 4.575043D+00

 Vector   67  Occ=0.000000D+00  E= 4.593231D+00

 Vector   68  Occ=0.000000D+00  E= 4.593609D+00

 Vector   69  Occ=0.000000D+00  E= 4.595897D+00

 Vector   70  Occ=0.000000D+00  E= 4.618719D+00

 Vector   71  Occ=0.000000D+00  E= 5.543635D+00

 Vector   72  Occ=0.000000D+00  E= 5.554381D+00

 Vector   73  Occ=0.000000D+00  E= 5.559672D+00

 Vector   74  Occ=0.000000D+00  E= 5.565752D+00

 Vector   75  Occ=0.000000D+00  E= 5.569733D+00

 Vector   76  Occ=0.000000D+00  E= 8.100310D+00

 Vector   77  Occ=0.000000D+00  E= 8.109420D+00

 Vector   78  Occ=0.000000D+00  E= 8.115233D+00

 Vector   79  Occ=0.000000D+00  E= 1.155029D+01

 Vector   80  Occ=0.000000D+00  E= 4.677787D+01

 Total times  cpu:      341.6s     wall:      684.5s
