 Output coordinates in angstroms (scale by  1.889725989 to convert to a.u.)

  No.       Tag          Charge          X              Y              Z
 ---- ---------------- ---------- -------------- -------------- --------------
    1 C                    6.0000    -0.00000000    -0.00000000     0.21494736
    2 C                    6.0000    -0.00000000    -0.00000000     1.43313036
    3 C                    6.0000     0.00000000     0.00000000    -1.24647564
    4 H                    1.0000     0.00000000     0.00000000     2.49888736
    5 H                    1.0000     0.72205823     0.72205823    -1.63616664
    6 H                    1.0000     0.26429165    -0.98634988    -1.63616664
    7 H                    1.0000    -0.98634988     0.26429165    -1.63616664

         Total DFT energy =     -116.683266053606

                       DFT Final Molecular Orbital Analysis
                       ------------------------------------

 Vector    1  Occ=2.000000D+00  E=-1.004077D+01  Symmetry=a1

 Vector    2  Occ=2.000000D+00  E=-1.001577D+01  Symmetry=a1

 Vector    3  Occ=2.000000D+00  E=-1.000435D+01  Symmetry=a1

 Vector    4  Occ=2.000000D+00  E=-7.295025D-01  Symmetry=a1

 Vector    5  Occ=2.000000D+00  E=-6.532581D-01  Symmetry=a1

 Vector    6  Occ=2.000000D+00  E=-4.924983D-01  Symmetry=a1

 Vector    7  Occ=2.000000D+00  E=-4.150352D-01  Symmetry=a1

 Vector    8  Occ=2.000000D+00  E=-4.001936D-01  Symmetry=e

 Vector    9  Occ=2.000000D+00  E=-4.001936D-01  Symmetry=e

 Vector   10  Occ=2.000000D+00  E=-2.416425D-01  Symmetry=e

 Vector   11  Occ=2.000000D+00  E=-2.416425D-01  Symmetry=e

 Vector   12  Occ=0.000000D+00  E=-2.172947D-02  Symmetry=a1

 Vector   13  Occ=0.000000D+00  E=-6.289322D-04  Symmetry=a1

 Vector   14  Occ=0.000000D+00  E= 1.387408D-03  Symmetry=e

 Vector   15  Occ=0.000000D+00  E= 1.387408D-03  Symmetry=e

 Vector   16  Occ=0.000000D+00  E= 2.673489D-02  Symmetry=e

 Vector   17  Occ=0.000000D+00  E= 2.673489D-02  Symmetry=e

 Vector   18  Occ=0.000000D+00  E= 3.820005D-02  Symmetry=a1

 Vector   19  Occ=0.000000D+00  E= 6.994327D-02  Symmetry=e

 Vector   20  Occ=0.000000D+00  E= 6.994327D-02  Symmetry=e

 Vector   21  Occ=0.000000D+00  E= 8.677733D-02  Symmetry=e

 Vector   22  Occ=0.000000D+00  E= 8.677733D-02  Symmetry=e

 Vector   23  Occ=0.000000D+00  E= 9.347900D-02  Symmetry=a1

 Vector   24  Occ=0.000000D+00  E= 9.747591D-02  Symmetry=a1

 Vector   25  Occ=0.000000D+00  E= 1.081450D-01  Symmetry=a1

 Vector   26  Occ=0.000000D+00  E= 1.344404D-01  Symmetry=e

 Vector   27  Occ=0.000000D+00  E= 1.344404D-01  Symmetry=e

 Vector   28  Occ=0.000000D+00  E= 1.678671D-01  Symmetry=e

 Vector   29  Occ=0.000000D+00  E= 1.678671D-01  Symmetry=e

 Vector   30  Occ=0.000000D+00  E= 1.724438D-01  Symmetry=a1

 Vector   31  Occ=0.000000D+00  E= 1.822075D-01  Symmetry=a1

 Vector   32  Occ=0.000000D+00  E= 2.407763D-01  Symmetry=a1

 Vector   33  Occ=0.000000D+00  E= 2.620104D-01  Symmetry=a1

 Vector   34  Occ=0.000000D+00  E= 3.048267D-01  Symmetry=e

 Vector   35  Occ=0.000000D+00  E= 3.048267D-01  Symmetry=e

 Vector   36  Occ=0.000000D+00  E= 3.204787D-01  Symmetry=e

 Vector   37  Occ=0.000000D+00  E= 3.204787D-01  Symmetry=e

 Vector   38  Occ=0.000000D+00  E= 3.356033D-01  Symmetry=a1

 Vector   39  Occ=0.000000D+00  E= 3.627232D-01  Symmetry=a1

 Vector   40  Occ=0.000000D+00  E= 3.723307D-01  Symmetry=e

 Vector   41  Occ=0.000000D+00  E= 3.723307D-01  Symmetry=e

 Vector   42  Occ=0.000000D+00  E= 4.749098D-01  Symmetry=e

 Vector   43  Occ=0.000000D+00  E= 4.749098D-01  Symmetry=e

 Vector   44  Occ=0.000000D+00  E= 4.794424D-01  Symmetry=a1

 Vector   45  Occ=0.000000D+00  E= 4.923506D-01  Symmetry=a2

 Vector   46  Occ=0.000000D+00  E= 5.070010D-01  Symmetry=e

     Multipole analysis of the density
     ---------------------------------

     L   x y z        total         alpha         beta         nuclear
     -   - - -        -----         -----         ----         -------
     0   0 0 0     -0.000000    -11.000000    -11.000000     22.000000

     1   1 0 0     -0.000000     -0.000000     -0.000000      0.000000
     1   0 1 0     -0.000000     -0.000000     -0.000000      0.000000
     1   0 0 1     -0.329337     -0.164669     -0.164669      0.000000

     2   2 0 0    -14.786814    -10.186165    -10.186165      5.585517
     2   1 1 0     -0.000000     -0.000000     -0.000000     -0.000000
     2   1 0 1      0.000000      0.000000      0.000000      0.000000
     2   0 2 0    -14.786814    -10.186165    -10.186165      5.585517
     2   0 1 1      0.000000      0.000000      0.000000      0.000000

 Total times  cpu:       57.8s     wall:       62.9s
