 Output coordinates in angstroms (scale by  1.889725989 to convert to a.u.)

  No.       Tag          Charge          X              Y              Z
 ---- ---------------- ---------- -------------- -------------- --------------
    1 C                    6.0000     0.75741177     0.75741177     0.14762600
    2 C                    6.0000    -0.75741177    -0.75741177     0.14762600
    3 C                    6.0000    -0.75741177     0.75741177    -0.14762600
    4 C                    6.0000     0.75741177    -0.75741177    -0.14762600
    5 H                    1.0000     1.40492077     1.40492077    -0.45007700
    6 H                    1.0000     0.94958855     0.94958855     1.20752000
    7 H                    1.0000    -1.40492077    -1.40492077    -0.45007700
    8 H                    1.0000    -0.94958855    -0.94958855     1.20752000
    9 H                    1.0000    -1.40492077     1.40492077     0.45007700
   10 H                    1.0000    -0.94958855     0.94958855    -1.20752000
   11 H                    1.0000     1.40492077    -1.40492077     0.45007700
   12 H                    1.0000     0.94958855    -0.94958855    -1.20752000

         Total DFT energy =     -157.253902519379

                       DFT Final Molecular Orbital Analysis
                       ------------------------------------

 Vector    4  Occ=2.000000D+00  E=-1.000603D+01  Symmetry=b2

 Vector    5  Occ=2.000000D+00  E=-7.861118D-01  Symmetry=a1

 Vector    6  Occ=2.000000D+00  E=-6.064609D-01  Symmetry=e

 Vector    7  Occ=2.000000D+00  E=-6.064609D-01  Symmetry=e

 Vector    8  Occ=2.000000D+00  E=-5.071982D-01  Symmetry=b2

 Vector    9  Occ=2.000000D+00  E=-4.392032D-01  Symmetry=b2

 Vector   10  Occ=2.000000D+00  E=-4.376581D-01  Symmetry=a1

 Vector   11  Occ=2.000000D+00  E=-3.487192D-01  Symmetry=e

 Vector   12  Occ=2.000000D+00  E=-3.487192D-01  Symmetry=e

 Vector   13  Occ=2.000000D+00  E=-3.147568D-01  Symmetry=b1

 Vector   14  Occ=2.000000D+00  E=-2.847771D-01  Symmetry=a1

 Vector   15  Occ=2.000000D+00  E=-2.704501D-01  Symmetry=e

 Vector   16  Occ=2.000000D+00  E=-2.704501D-01  Symmetry=e

 Vector   17  Occ=0.000000D+00  E=-1.957655D-02  Symmetry=a1

 Vector   18  Occ=0.000000D+00  E=-5.258362D-03  Symmetry=b2

 Vector   19  Occ=0.000000D+00  E=-2.288892D-03  Symmetry=e

 Vector   20  Occ=0.000000D+00  E=-2.288892D-03  Symmetry=e

 Vector   21  Occ=0.000000D+00  E= 2.909600D-02  Symmetry=b2

 Vector   22  Occ=0.000000D+00  E= 3.219565D-02  Symmetry=a1

 Vector   23  Occ=0.000000D+00  E= 3.598868D-02  Symmetry=e

 Vector   24  Occ=0.000000D+00  E= 3.598868D-02  Symmetry=e

 Vector   25  Occ=0.000000D+00  E= 6.279832D-02  Symmetry=b1

 Vector   26  Occ=0.000000D+00  E= 8.175685D-02  Symmetry=e

 Vector   27  Occ=0.000000D+00  E= 8.175685D-02  Symmetry=e

 Vector   28  Occ=0.000000D+00  E= 8.571499D-02  Symmetry=a1

 Vector   29  Occ=0.000000D+00  E= 1.020472D-01  Symmetry=e

 Vector   30  Occ=0.000000D+00  E= 1.020472D-01  Symmetry=e

 Vector   31  Occ=0.000000D+00  E= 1.026199D-01  Symmetry=b2

 Vector   32  Occ=0.000000D+00  E= 1.070982D-01  Symmetry=a1

 Vector   33  Occ=0.000000D+00  E= 1.129464D-01  Symmetry=b2

 Vector   34  Occ=0.000000D+00  E= 1.175320D-01  Symmetry=e

 Vector   35  Occ=0.000000D+00  E= 1.175320D-01  Symmetry=e

 Vector   36  Occ=0.000000D+00  E= 1.210335D-01  Symmetry=a2

 Vector   37  Occ=0.000000D+00  E= 1.442668D-01  Symmetry=a1

 Vector   38  Occ=0.000000D+00  E= 1.470310D-01  Symmetry=e

 Vector   39  Occ=0.000000D+00  E= 1.470310D-01  Symmetry=e

 Vector   40  Occ=0.000000D+00  E= 1.485940D-01  Symmetry=b2

 Vector   41  Occ=0.000000D+00  E= 1.898737D-01  Symmetry=e

 Vector   42  Occ=0.000000D+00  E= 1.898737D-01  Symmetry=e

 Vector   43  Occ=0.000000D+00  E= 1.958092D-01  Symmetry=b2

 Vector   44  Occ=0.000000D+00  E= 2.136613D-01  Symmetry=a1

 Vector   45  Occ=0.000000D+00  E= 2.228079D-01  Symmetry=a2

 Vector   46  Occ=0.000000D+00  E= 2.294333D-01  Symmetry=e

 Vector   47  Occ=0.000000D+00  E= 2.294333D-01  Symmetry=e

 Vector   48  Occ=0.000000D+00  E= 2.690727D-01  Symmetry=e

 Vector   49  Occ=0.000000D+00  E= 2.690727D-01  Symmetry=e

 Vector   50  Occ=0.000000D+00  E= 2.999021D-01  Symmetry=a2

 Vector   51  Occ=0.000000D+00  E= 3.022672D-01  Symmetry=b2

 Vector   52  Occ=0.000000D+00  E= 3.041534D-01  Symmetry=a1

 Vector   53  Occ=0.000000D+00  E= 3.113541D-01  Symmetry=a1

 Vector   54  Occ=0.000000D+00  E= 3.429952D-01  Symmetry=e

 Vector   55  Occ=0.000000D+00  E= 3.429952D-01  Symmetry=e

 Vector   56  Occ=0.000000D+00  E= 3.523974D-01  Symmetry=b2

 Vector   57  Occ=0.000000D+00  E= 3.600218D-01  Symmetry=b1

 Vector   58  Occ=0.000000D+00  E= 4.003878D-01  Symmetry=a1

 Vector   59  Occ=0.000000D+00  E= 4.250967D-01  Symmetry=e

 Vector   60  Occ=0.000000D+00  E= 4.250967D-01  Symmetry=e

 Vector   61  Occ=0.000000D+00  E= 4.606737D-01  Symmetry=b2

 Vector   62  Occ=0.000000D+00  E= 4.701498D-01  Symmetry=e

 Vector   63  Occ=0.000000D+00  E= 4.701498D-01  Symmetry=e

 Vector   64  Occ=0.000000D+00  E= 4.711934D-01  Symmetry=b1

 Vector   65  Occ=0.000000D+00  E= 4.715131D-01  Symmetry=a1

 Vector   66  Occ=0.000000D+00  E= 4.832807D-01  Symmetry=b2

 Vector   67  Occ=0.000000D+00  E= 5.040289D-01  Symmetry=a1

     Multipole analysis of the density
     ---------------------------------

     L   x y z        total         alpha         beta         nuclear
     -   - - -        -----         -----         ----         -------
     0   0 0 0      0.000000    -16.000000    -16.000000     32.000000

     1   1 0 0      0.000000      0.000000      0.000000      0.000000
     1   0 1 0      0.000000      0.000000      0.000000     -0.000000
     1   0 0 1      0.000000      0.000000      0.000000      0.000000

     2   2 0 0    -20.539838    -55.390719    -55.390719     90.241600
     2   1 1 0      0.000000      0.000000      0.000000      0.000000
     2   1 0 1     -0.000000     -0.000000     -0.000000      0.000000
     2   0 2 0    -20.539838    -55.390719    -55.390719     90.241600
     2   0 1 1     -0.000000     -0.000000     -0.000000      0.000000

 Total times  cpu:      122.9s     wall:      139.6s
