 Output coordinates in angstroms (scale by  1.889725989 to convert to a.u.)

  No.       Tag          Charge          X              Y              Z
 ---- ---------------- ---------- -------------- -------------- --------------
    1 C                    6.0000    -0.40499927     0.63887552     0.00000000
    2 C                    6.0000     0.40499927    -0.63887552     0.00000000
    3 O                    8.0000     0.13934710     1.73399918     0.00000000
    4 H                    1.0000    -1.50212664     0.50194492     0.00000000
    5 O                    8.0000    -0.13934710    -1.73399918     0.00000000
    6 H                    1.0000     1.50212664    -0.50194492     0.00000000

         Total DFT energy =     -227.864681464804

                       DFT Final Molecular Orbital Analysis
                       ------------------------------------

 Vector    4  Occ=2.000000D+00  E=-1.013147D+01  Symmetry=bu

 Vector    5  Occ=2.000000D+00  E=-1.025630D+00  Symmetry=ag

 Vector    6  Occ=2.000000D+00  E=-1.011911D+00  Symmetry=bu

 Vector    7  Occ=2.000000D+00  E=-6.729577D-01  Symmetry=ag

 Vector    8  Occ=2.000000D+00  E=-5.669188D-01  Symmetry=bu

 Vector    9  Occ=2.000000D+00  E=-4.630980D-01  Symmetry=ag

 Vector   10  Occ=2.000000D+00  E=-4.510920D-01  Symmetry=bu

 Vector   11  Occ=2.000000D+00  E=-4.186218D-01  Symmetry=au

 Vector   12  Occ=2.000000D+00  E=-4.175928D-01  Symmetry=ag

 Vector   13  Occ=2.000000D+00  E=-3.687306D-01  Symmetry=bg

 Vector   14  Occ=2.000000D+00  E=-2.927778D-01  Symmetry=bu

 Vector   15  Occ=2.000000D+00  E=-2.414762D-01  Symmetry=ag

 Vector   16  Occ=0.000000D+00  E=-1.602936D-01  Symmetry=au

 Vector   17  Occ=0.000000D+00  E=-3.851199D-02  Symmetry=bg

 Vector   18  Occ=0.000000D+00  E=-1.316039D-02  Symmetry=ag

 Vector   19  Occ=0.000000D+00  E=-8.016638D-03  Symmetry=bu

 Vector   20  Occ=0.000000D+00  E= 1.909239D-02  Symmetry=bu

 Vector   21  Occ=0.000000D+00  E= 3.335652D-02  Symmetry=au

 Vector   22  Occ=0.000000D+00  E= 4.681207D-02  Symmetry=ag

 Vector   23  Occ=0.000000D+00  E= 6.856955D-02  Symmetry=ag

 Vector   24  Occ=0.000000D+00  E= 7.423953D-02  Symmetry=bg

 Vector   25  Occ=0.000000D+00  E= 7.920335D-02  Symmetry=ag

 Vector   26  Occ=0.000000D+00  E= 9.999897D-02  Symmetry=bu

 Vector   27  Occ=0.000000D+00  E= 1.232741D-01  Symmetry=bu

 Vector   28  Occ=0.000000D+00  E= 1.371773D-01  Symmetry=bu

 Vector   29  Occ=0.000000D+00  E= 1.405751D-01  Symmetry=ag

 Vector   30  Occ=0.000000D+00  E= 1.576611D-01  Symmetry=bu

 Vector   31  Occ=0.000000D+00  E= 1.797301D-01  Symmetry=bg

 Vector   32  Occ=0.000000D+00  E= 2.088845D-01  Symmetry=bu

 Vector   33  Occ=0.000000D+00  E= 2.264945D-01  Symmetry=au

 Vector   34  Occ=0.000000D+00  E= 2.282886D-01  Symmetry=ag

 Vector   35  Occ=0.000000D+00  E= 2.444966D-01  Symmetry=bu

 Vector   36  Occ=0.000000D+00  E= 2.680807D-01  Symmetry=ag

 Vector   37  Occ=0.000000D+00  E= 2.759977D-01  Symmetry=ag

 Vector   38  Occ=0.000000D+00  E= 2.782243D-01  Symmetry=bu

 Vector   39  Occ=0.000000D+00  E= 3.282023D-01  Symmetry=ag

 Vector   40  Occ=0.000000D+00  E= 3.331183D-01  Symmetry=au

 Vector   41  Occ=0.000000D+00  E= 3.359146D-01  Symmetry=bu

 Vector   42  Occ=0.000000D+00  E= 3.410323D-01  Symmetry=bg

 Vector   43  Occ=0.000000D+00  E= 3.597394D-01  Symmetry=ag

 Vector   44  Occ=0.000000D+00  E= 3.924895D-01  Symmetry=bu

 Vector   45  Occ=0.000000D+00  E= 4.284621D-01  Symmetry=au

 Vector   46  Occ=0.000000D+00  E= 4.571999D-01  Symmetry=bu

 Vector   47  Occ=0.000000D+00  E= 4.583201D-01  Symmetry=ag

 Vector   48  Occ=0.000000D+00  E= 4.944205D-01  Symmetry=au

 Vector   49  Occ=0.000000D+00  E= 4.977951D-01  Symmetry=bg

 Vector   50  Occ=0.000000D+00  E= 5.148089D-01  Symmetry=bu

     Multipole analysis of the density
     ---------------------------------

     L   x y z        total         alpha         beta         nuclear
     -   - - -        -----         -----         ----         -------
     0   0 0 0     -0.000000    -15.000000    -15.000000     30.000000

     1   1 0 0     -0.000000     -0.000000     -0.000000      0.000000
     1   0 1 0     -0.000000     -0.000000     -0.000000      0.000000
     1   0 0 1      0.000000      0.000000      0.000000      0.000000

     2   2 0 0    -15.517350    -19.885552    -19.885552     24.253753
     2   1 1 0     -1.643767      0.511650      0.511650     -2.667067
     2   1 0 1      0.000000      0.000000      0.000000      0.000000
     2   0 2 0    -23.319763   -107.203513   -107.203513    191.087263
     2   0 1 1      0.000000      0.000000      0.000000      0.000000

 Total times  cpu:       43.7s     wall:       48.2s
