 Output coordinates in angstroms (scale by  1.889725989 to convert to a.u.)

  No.       Tag          Charge          X              Y              Z
 ---- ---------------- ---------- -------------- -------------- --------------
    1 S                   16.0000     0.00000000     0.00000000     0.96011300
    2 S                   16.0000     0.00000000     0.00000000    -0.96011300

         Total DFT energy =     -796.149958807198

                    DFT Final Alpha Molecular Orbital Analysis
                    ------------------------------------------

 Vector    5  Occ=1.000000D+00  E=-5.762875D+00  Symmetry=a1g

 Vector    6  Occ=1.000000D+00  E=-5.762208D+00  Symmetry=a2u

 Vector    7  Occ=1.000000D+00  E=-5.761508D+00  Symmetry=eu

 Vector    8  Occ=1.000000D+00  E=-5.761508D+00  Symmetry=eu

 Vector    9  Occ=1.000000D+00  E=-5.761455D+00  Symmetry=eg

 Vector   10  Occ=1.000000D+00  E=-5.761455D+00  Symmetry=eg

 Vector   11  Occ=1.000000D+00  E=-7.795864D-01  Symmetry=a1g

 Vector   12  Occ=1.000000D+00  E=-5.930898D-01  Symmetry=a2u

 Vector   13  Occ=1.000000D+00  E=-3.699164D-01  Symmetry=a1g

 Vector   14  Occ=1.000000D+00  E=-3.451445D-01  Symmetry=eu

 Vector   15  Occ=1.000000D+00  E=-3.451445D-01  Symmetry=eu

 Vector   16  Occ=1.000000D+00  E=-2.232543D-01  Symmetry=eg

 Vector   17  Occ=1.000000D+00  E=-2.232543D-01  Symmetry=eg

 Vector   18  Occ=0.000000D+00  E=-4.966428D-02  Symmetry=a2u

 Vector   19  Occ=0.000000D+00  E=-3.080422D-03  Symmetry=a1g

 Vector   20  Occ=0.000000D+00  E= 2.718981D-02  Symmetry=eu

 Vector   21  Occ=0.000000D+00  E= 2.718981D-02  Symmetry=eu

 Vector   22  Occ=0.000000D+00  E= 3.356611D-02  Symmetry=a2u

 Vector   23  Occ=0.000000D+00  E= 4.037966D-02  Symmetry=a1g

 Vector   24  Occ=0.000000D+00  E= 6.193655D-02  Symmetry=eg

 Vector   25  Occ=0.000000D+00  E= 6.193655D-02  Symmetry=eg

 Vector   26  Occ=0.000000D+00  E= 1.204133D-01  Symmetry=a2u

 Vector   27  Occ=0.000000D+00  E= 1.303416D-01  Symmetry=b2g

 Vector   28  Occ=0.000000D+00  E= 1.303416D-01  Symmetry=b1g

 Vector   29  Occ=0.000000D+00  E= 1.517145D-01  Symmetry=eu

 Vector   30  Occ=0.000000D+00  E= 1.517145D-01  Symmetry=eu

 Vector   31  Occ=0.000000D+00  E= 2.001725D-01  Symmetry=a1g

 Vector   32  Occ=0.000000D+00  E= 2.386112D-01  Symmetry=a2u

 Vector   33  Occ=0.000000D+00  E= 2.541579D-01  Symmetry=b1u

 Vector   34  Occ=0.000000D+00  E= 2.541580D-01  Symmetry=b2u

 Vector   35  Occ=0.000000D+00  E= 2.796360D-01  Symmetry=eu

 Vector   36  Occ=0.000000D+00  E= 2.796360D-01  Symmetry=eu

 Vector   37  Occ=0.000000D+00  E= 3.026460D-01  Symmetry=a1g

 Vector   38  Occ=0.000000D+00  E= 3.047207D-01  Symmetry=eg

 Vector   39  Occ=0.000000D+00  E= 3.047207D-01  Symmetry=eg

 Vector   40  Occ=0.000000D+00  E= 4.322944D-01  Symmetry=a2u

 Vector   41  Occ=0.000000D+00  E= 4.534374D-01  Symmetry=a1g

 Vector   42  Occ=0.000000D+00  E= 4.536646D-01  Symmetry=eg

 Vector   43  Occ=0.000000D+00  E= 4.536646D-01  Symmetry=eg

 Vector   44  Occ=0.000000D+00  E= 6.566623D-01  Symmetry=a2u

 Vector    5  Occ=1.000000D+00  E=-5.759599D+00  Symmetry=a1g

 Vector    6  Occ=1.000000D+00  E=-5.758927D+00  Symmetry=a2u

 Vector    7  Occ=1.000000D+00  E=-5.752260D+00  Symmetry=eu

 Vector    8  Occ=1.000000D+00  E=-5.752260D+00  Symmetry=eu

 Vector    9  Occ=1.000000D+00  E=-5.752206D+00  Symmetry=eg

 Vector   10  Occ=1.000000D+00  E=-5.752206D+00  Symmetry=eg

 Vector   11  Occ=1.000000D+00  E=-7.555418D-01  Symmetry=a1g

 Vector   12  Occ=1.000000D+00  E=-5.457572D-01  Symmetry=a2u

 Vector   13  Occ=1.000000D+00  E=-3.509010D-01  Symmetry=a1g

 Vector   14  Occ=1.000000D+00  E=-3.060461D-01  Symmetry=eu

 Vector   15  Occ=1.000000D+00  E=-3.060461D-01  Symmetry=eu

 Vector   16  Occ=0.000000D+00  E=-1.674259D-01  Symmetry=eg

 Vector   17  Occ=0.000000D+00  E=-1.674259D-01  Symmetry=eg

 Vector   18  Occ=0.000000D+00  E=-3.384422D-02  Symmetry=a2u

 Vector   19  Occ=0.000000D+00  E= 4.786718D-03  Symmetry=a1g

 Vector   20  Occ=0.000000D+00  E= 3.401419D-02  Symmetry=eu

 Vector   21  Occ=0.000000D+00  E= 3.401419D-02  Symmetry=eu

 Vector   22  Occ=0.000000D+00  E= 4.246621D-02  Symmetry=a2u

 Vector   23  Occ=0.000000D+00  E= 4.705745D-02  Symmetry=a1g

 Vector   24  Occ=0.000000D+00  E= 7.228811D-02  Symmetry=eg

 Vector   25  Occ=0.000000D+00  E= 7.228811D-02  Symmetry=eg

 Vector   26  Occ=0.000000D+00  E= 1.283094D-01  Symmetry=a2u

 Vector   27  Occ=0.000000D+00  E= 1.602692D-01  Symmetry=b1g

 Vector   28  Occ=0.000000D+00  E= 1.602692D-01  Symmetry=b2g

 Vector   29  Occ=0.000000D+00  E= 1.733503D-01  Symmetry=eu

 Vector   30  Occ=0.000000D+00  E= 1.733503D-01  Symmetry=eu

 Vector   31  Occ=0.000000D+00  E= 2.125601D-01  Symmetry=a1g

 Vector   32  Occ=0.000000D+00  E= 2.457250D-01  Symmetry=a2u

 Vector   33  Occ=0.000000D+00  E= 2.930343D-01  Symmetry=eu

 Vector   34  Occ=0.000000D+00  E= 2.930343D-01  Symmetry=eu

 Vector   35  Occ=0.000000D+00  E= 2.950870D-01  Symmetry=b1u

 Vector   36  Occ=0.000000D+00  E= 2.950870D-01  Symmetry=b2u

 Vector   37  Occ=0.000000D+00  E= 3.132191D-01  Symmetry=a1g

 Vector   38  Occ=0.000000D+00  E= 3.213386D-01  Symmetry=eg

 Vector   39  Occ=0.000000D+00  E= 3.213386D-01  Symmetry=eg

 Vector   40  Occ=0.000000D+00  E= 4.515984D-01  Symmetry=a2u

 Vector   41  Occ=0.000000D+00  E= 4.663949D-01  Symmetry=a1g

 Vector   42  Occ=0.000000D+00  E= 4.761321D-01  Symmetry=eg

 Vector   43  Occ=0.000000D+00  E= 4.761321D-01  Symmetry=eg

 Vector   44  Occ=0.000000D+00  E= 6.686433D-01  Symmetry=a2u

     Multipole analysis of the density
     ---------------------------------

     L   x y z        total         alpha         beta         nuclear
     -   - - -        -----         -----         ----         -------
     0   0 0 0     -0.000000    -17.000000    -15.000000     32.000000

     1   1 0 0      0.000000      0.000000      0.000000      0.000000
     1   0 1 0      0.000000      0.000000      0.000000      0.000000
     1   0 0 1     -0.000000     -0.000000     -0.000000      0.000000

     2   2 0 0    -19.305085    -11.530614     -7.774471      0.000000
     2   1 1 0      0.000000      0.000000      0.000000      0.000000
     2   1 0 1      0.000000      0.000000      0.000000      0.000000
     2   0 2 0    -19.305085    -11.530614     -7.774471      0.000000
     2   0 1 1      0.000000      0.000000      0.000000      0.000000

 Total times  cpu:        5.9s     wall:        6.5s
