 Output coordinates in angstroms (scale by  1.889725989 to convert to a.u.)

  No.       Tag          Charge          X              Y              Z
 ---- ---------------- ---------- -------------- -------------- --------------
    1 Si                  14.0000     0.00000000     0.00000000     0.00000000
    2 H                    1.0000     0.85613500    -0.85613500     0.85613500
    3 H                    1.0000    -0.85613500     0.85613500     0.85613500
    4 H                    1.0000     0.85613500     0.85613500    -0.85613500
    5 H                    1.0000    -0.85613500    -0.85613500    -0.85613500

         Total DFT energy =     -291.814599257613

                       DFT Final Molecular Orbital Analysis
                       ------------------------------------

 Vector    1  Occ=2.000000D+00  E=-6.570872D+01  Symmetry=a1

 Vector    2  Occ=2.000000D+00  E=-5.122673D+00  Symmetry=a1

 Vector    3  Occ=2.000000D+00  E=-3.480299D+00  Symmetry=t2

 Vector    4  Occ=2.000000D+00  E=-3.480299D+00  Symmetry=t2

 Vector    5  Occ=2.000000D+00  E=-3.480299D+00  Symmetry=t2

 Vector    6  Occ=2.000000D+00  E=-5.096149D-01  Symmetry=a1

 Vector    7  Occ=2.000000D+00  E=-3.272424D-01  Symmetry=t2

 Vector    8  Occ=2.000000D+00  E=-3.272424D-01  Symmetry=t2

 Vector    9  Occ=2.000000D+00  E=-3.272424D-01  Symmetry=t2

 Vector   10  Occ=0.000000D+00  E=-1.527939D-02  Symmetry=a1

 Vector   11  Occ=0.000000D+00  E= 2.085337D-03  Symmetry=t2

 Vector   12  Occ=0.000000D+00  E= 2.085337D-03  Symmetry=t2

 Vector   13  Occ=0.000000D+00  E= 2.085337D-03  Symmetry=t2

 Vector   14  Occ=0.000000D+00  E= 2.696805D-02  Symmetry=t2

 Vector   15  Occ=0.000000D+00  E= 2.696805D-02  Symmetry=t2

 Vector   16  Occ=0.000000D+00  E= 2.696805D-02  Symmetry=t2

 Vector   17  Occ=0.000000D+00  E= 9.265677D-02  Symmetry=t2

 Vector   18  Occ=0.000000D+00  E= 9.265677D-02  Symmetry=t2

 Vector   19  Occ=0.000000D+00  E= 9.265677D-02  Symmetry=t2

 Vector   20  Occ=0.000000D+00  E= 1.010634D-01  Symmetry=a1

 Vector   21  Occ=0.000000D+00  E= 1.159825D-01  Symmetry=e

 Vector   22  Occ=0.000000D+00  E= 1.159825D-01  Symmetry=e

 Vector   23  Occ=0.000000D+00  E= 1.228839D-01  Symmetry=a1

 Vector   24  Occ=0.000000D+00  E= 2.256321D-01  Symmetry=t2

 Vector   25  Occ=0.000000D+00  E= 2.256321D-01  Symmetry=t2

 Vector   26  Occ=0.000000D+00  E= 2.256321D-01  Symmetry=t2

 Vector   27  Occ=0.000000D+00  E= 2.971169D-01  Symmetry=t2

 Vector   28  Occ=0.000000D+00  E= 2.971169D-01  Symmetry=t2

 Vector   29  Occ=0.000000D+00  E= 2.971169D-01  Symmetry=t2

 Vector   30  Occ=0.000000D+00  E= 3.306922D-01  Symmetry=a1

 Vector   31  Occ=0.000000D+00  E= 3.807444D-01  Symmetry=t1

 Vector   32  Occ=0.000000D+00  E= 3.807444D-01  Symmetry=t1

 Vector   33  Occ=0.000000D+00  E= 3.807444D-01  Symmetry=t1

 Vector   34  Occ=0.000000D+00  E= 3.969092D-01  Symmetry=a1

 Vector   35  Occ=0.000000D+00  E= 4.362335D-01  Symmetry=t2

 Vector   36  Occ=0.000000D+00  E= 4.362335D-01  Symmetry=t2

 Vector   37  Occ=0.000000D+00  E= 4.362335D-01  Symmetry=t2

 Vector   38  Occ=0.000000D+00  E= 5.601999D-01  Symmetry=t2

     Multipole analysis of the density
     ---------------------------------

     L   x y z        total         alpha         beta         nuclear
     -   - - -        -----         -----         ----         -------
     0   0 0 0      0.000000     -9.000000     -9.000000     18.000000

     1   1 0 0      0.000000      0.000000      0.000000      0.000000
     1   0 1 0     -0.000000     -0.000000     -0.000000      0.000000
     1   0 0 1      0.000000      0.000000      0.000000      0.000000

     2   2 0 0    -12.332720    -11.401305    -11.401305     10.469891
     2   1 1 0     -0.000000     -0.000000     -0.000000      0.000000
     2   1 0 1      0.000000      0.000000      0.000000      0.000000
     2   0 2 0    -12.332720    -11.401305    -11.401305     10.469891
     2   0 1 1      0.000000      0.000000      0.000000      0.000000

 Total times  cpu:        4.8s     wall:        5.6s
