 Output coordinates in angstroms (scale by  1.889725989 to convert to a.u.)

  No.       Tag          Charge          X              Y              Z
 ---- ---------------- ---------- -------------- -------------- --------------
    1 Si                  14.0000     0.00000000     0.00000000     0.56084582
    2 O                    8.0000     0.00000000     0.00000000    -0.98148018

         Total DFT energy =     -364.646274133850

                       DFT Final Molecular Orbital Analysis
                       ------------------------------------

 Vector    1  Occ=2.000000D+00  E=-6.574910D+01  Symmetry=a1

 Vector    2  Occ=2.000000D+00  E=-1.891246D+01  Symmetry=a1

 Vector    3  Occ=2.000000D+00  E=-5.159090D+00  Symmetry=a1

 Vector    4  Occ=2.000000D+00  E=-3.519955D+00  Symmetry=e

 Vector    5  Occ=2.000000D+00  E=-3.519955D+00  Symmetry=e

 Vector    6  Occ=2.000000D+00  E=-3.511924D+00  Symmetry=a1

 Vector    7  Occ=2.000000D+00  E=-8.833595D-01  Symmetry=a1

 Vector    8  Occ=2.000000D+00  E=-4.053025D-01  Symmetry=a1

 Vector    9  Occ=2.000000D+00  E=-2.985024D-01  Symmetry=e

 Vector   10  Occ=2.000000D+00  E=-2.985024D-01  Symmetry=e

 Vector   11  Occ=2.000000D+00  E=-2.818947D-01  Symmetry=a1

 Vector   12  Occ=0.000000D+00  E=-1.076104D-01  Symmetry=e

 Vector   13  Occ=0.000000D+00  E=-1.076104D-01  Symmetry=e

 Vector   14  Occ=0.000000D+00  E=-1.607224D-02  Symmetry=a1

 Vector   15  Occ=0.000000D+00  E= 6.709345D-05  Symmetry=a1

 Vector   16  Occ=0.000000D+00  E= 3.004218D-02  Symmetry=e

 Vector   17  Occ=0.000000D+00  E= 3.004218D-02  Symmetry=e

 Vector   18  Occ=0.000000D+00  E= 7.115647D-02  Symmetry=a1

 Vector   19  Occ=0.000000D+00  E= 1.284747D-01  Symmetry=b1

 Vector   20  Occ=0.000000D+00  E= 1.284747D-01  Symmetry=b2

 Vector   21  Occ=0.000000D+00  E= 1.823995D-01  Symmetry=a1

 Vector   22  Occ=0.000000D+00  E= 1.847136D-01  Symmetry=e

 Vector   23  Occ=0.000000D+00  E= 1.847136D-01  Symmetry=e

 Vector   24  Occ=0.000000D+00  E= 2.034170D-01  Symmetry=a1

 Vector   25  Occ=0.000000D+00  E= 2.327230D-01  Symmetry=e

 Vector   26  Occ=0.000000D+00  E= 2.327230D-01  Symmetry=e

 Vector   27  Occ=0.000000D+00  E= 2.502272D-01  Symmetry=e

 Vector   28  Occ=0.000000D+00  E= 2.502272D-01  Symmetry=e

 Vector   29  Occ=0.000000D+00  E= 2.709385D-01  Symmetry=a1

 Vector   30  Occ=0.000000D+00  E= 3.132850D-01  Symmetry=a1

 Vector   31  Occ=0.000000D+00  E= 4.875761D-01  Symmetry=a1

 Vector   32  Occ=0.000000D+00  E= 6.915601D-01  Symmetry=e

     Multipole analysis of the density
     ---------------------------------

     L   x y z        total         alpha         beta         nuclear
     -   - - -        -----         -----         ----         -------
     0   0 0 0      0.000000    -11.000000    -11.000000     22.000000

     1   1 0 0      0.000000      0.000000      0.000000      0.000000
     1   0 1 0      0.000000      0.000000      0.000000      0.000000
     1   0 0 1      1.152415      0.576208      0.576208      0.000000

     2   2 0 0    -12.333851     -6.166926     -6.166926      0.000000
     2   1 1 0      0.000000      0.000000      0.000000      0.000000
     2   1 0 1      0.000000      0.000000      0.000000      0.000000
     2   0 2 0    -12.333851     -6.166926     -6.166926      0.000000
     2   0 1 1      0.000000      0.000000      0.000000      0.000000

 Total times  cpu:        4.7s     wall:        5.3s
