         Total DFT energy =     -199.606606202411

 Vector    1  Occ=2.000000D+00  E=-2.451500D+01  Symmetry=a1g

 Vector    2  Occ=2.000000D+00  E=-2.451500D+01  Symmetry=a2u

 Vector    3  Occ=2.000000D+00  E=-1.280029D+00  Symmetry=a1g

 Vector    4  Occ=2.000000D+00  E=-1.038454D+00  Symmetry=a2u

 Vector    5  Occ=2.000000D+00  E=-5.689326D-01  Symmetry=a1g

 Vector    6  Occ=2.000000D+00  E=-4.824931D-01  Symmetry=eu

 Vector    7  Occ=2.000000D+00  E=-4.824931D-01  Symmetry=eu

 Vector    8  Occ=2.000000D+00  E=-3.516064D-01  Symmetry=eg

 Vector    9  Occ=2.000000D+00  E=-3.516064D-01  Symmetry=eg

 Vector   10  Occ=0.000000D+00  E=-1.947718D-01  Symmetry=a2u

 Vector   11  Occ=0.000000D+00  E= 9.567288D-02  Symmetry=a1g

 Vector   12  Occ=0.000000D+00  E= 1.505462D-01  Symmetry=a2u

 Vector   13  Occ=0.000000D+00  E= 1.757249D-01  Symmetry=eu

 Vector   14  Occ=0.000000D+00  E= 1.757249D-01  Symmetry=eu

 Vector   15  Occ=0.000000D+00  E= 2.494904D-01  Symmetry=a1g

 Vector   16  Occ=0.000000D+00  E= 2.551956D-01  Symmetry=eg

 Vector   17  Occ=0.000000D+00  E= 2.551956D-01  Symmetry=eg

 Vector   18  Occ=0.000000D+00  E= 3.966212D-01  Symmetry=a2u

 Vector   19  Occ=0.000000D+00  E= 8.788278D-01  Symmetry=b2g

@ Step       Energy      Delta E   Gmax     Grms     Xrms     Xmax   Walltime
@ ---- ---------------- -------- -------- -------- -------- -------- --------
@    0    -199.60660620  0.0D+00  0.01373  0.01373  0.00000  0.00000      3.1
         Total DFT energy =     -199.606836105254

 Vector    1  Occ=2.000000D+00  E=-2.451583D+01  Symmetry=a1g

 Vector    2  Occ=2.000000D+00  E=-2.451583D+01  Symmetry=a2u

 Vector    3  Occ=2.000000D+00  E=-1.273157D+00  Symmetry=a1g

 Vector    4  Occ=2.000000D+00  E=-1.042139D+00  Symmetry=a2u

 Vector    5  Occ=2.000000D+00  E=-5.666456D-01  Symmetry=a1g

 Vector    6  Occ=2.000000D+00  E=-4.797127D-01  Symmetry=eu

 Vector    7  Occ=2.000000D+00  E=-4.797127D-01  Symmetry=eu

 Vector    8  Occ=2.000000D+00  E=-3.539817D-01  Symmetry=eg

 Vector    9  Occ=2.000000D+00  E=-3.539817D-01  Symmetry=eg

 Vector   10  Occ=0.000000D+00  E=-2.043204D-01  Symmetry=a2u

 Vector   11  Occ=0.000000D+00  E= 9.553845D-02  Symmetry=a1g

 Vector   12  Occ=0.000000D+00  E= 1.499139D-01  Symmetry=a2u

 Vector   13  Occ=0.000000D+00  E= 1.757946D-01  Symmetry=eu

 Vector   14  Occ=0.000000D+00  E= 1.757946D-01  Symmetry=eu

 Vector   15  Occ=0.000000D+00  E= 2.496737D-01  Symmetry=a1g

 Vector   16  Occ=0.000000D+00  E= 2.548413D-01  Symmetry=eg

 Vector   17  Occ=0.000000D+00  E= 2.548413D-01  Symmetry=eg

 Vector   18  Occ=0.000000D+00  E= 3.958435D-01  Symmetry=a2u

 Vector   19  Occ=0.000000D+00  E= 8.808274D-01  Symmetry=b2g

         Total DFT energy =     -199.606849178082

 Vector    1  Occ=2.000000D+00  E=-2.451608D+01  Symmetry=a1g

 Vector    2  Occ=2.000000D+00  E=-2.451608D+01  Symmetry=a2u

 Vector    3  Occ=2.000000D+00  E=-1.271386D+00  Symmetry=a1g

 Vector    4  Occ=2.000000D+00  E=-1.043117D+00  Symmetry=a2u

 Vector    5  Occ=2.000000D+00  E=-5.660387D-01  Symmetry=a1g

 Vector    6  Occ=2.000000D+00  E=-4.790030D-01  Symmetry=eu

 Vector    7  Occ=2.000000D+00  E=-4.790030D-01  Symmetry=eu

 Vector    8  Occ=2.000000D+00  E=-3.546164D-01  Symmetry=eg

 Vector    9  Occ=2.000000D+00  E=-3.546164D-01  Symmetry=eg

 Vector   10  Occ=0.000000D+00  E=-2.068194D-01  Symmetry=a2u

 Vector   11  Occ=0.000000D+00  E= 9.550087D-02  Symmetry=a1g

 Vector   12  Occ=0.000000D+00  E= 1.497499D-01  Symmetry=a2u

 Vector   13  Occ=0.000000D+00  E= 1.758067D-01  Symmetry=eu

 Vector   14  Occ=0.000000D+00  E= 1.758067D-01  Symmetry=eu

 Vector   15  Occ=0.000000D+00  E= 2.497205D-01  Symmetry=a1g

 Vector   16  Occ=0.000000D+00  E= 2.547457D-01  Symmetry=eg

 Vector   17  Occ=0.000000D+00  E= 2.547457D-01  Symmetry=eg

 Vector   18  Occ=0.000000D+00  E= 3.956343D-01  Symmetry=a2u

 Vector   19  Occ=0.000000D+00  E= 8.813575D-01  Symmetry=b2g

@    1    -199.60684918 -2.4D-04  0.00038  0.00038  0.01012  0.01753      6.7
         Total DFT energy =     -199.606849385892

                       DFT Final Molecular Orbital Analysis
                       ------------------------------------

 Vector    1  Occ=2.000000D+00  E=-2.451613D+01  Symmetry=a1g

 Vector    2  Occ=2.000000D+00  E=-2.451613D+01  Symmetry=a2u

 Vector    3  Occ=2.000000D+00  E=-1.271156D+00  Symmetry=a1g

 Vector    4  Occ=2.000000D+00  E=-1.043252D+00  Symmetry=a2u

 Vector    5  Occ=2.000000D+00  E=-5.659624D-01  Symmetry=a1g

 Vector    6  Occ=2.000000D+00  E=-4.789135D-01  Symmetry=eu

 Vector    7  Occ=2.000000D+00  E=-4.789135D-01  Symmetry=eu

 Vector    8  Occ=2.000000D+00  E=-3.547059D-01  Symmetry=eg

 Vector    9  Occ=2.000000D+00  E=-3.547059D-01  Symmetry=eg

 Vector   10  Occ=0.000000D+00  E=-2.071562D-01  Symmetry=a2u

 Vector   11  Occ=0.000000D+00  E= 9.549506D-02  Symmetry=a1g

 Vector   12  Occ=0.000000D+00  E= 1.497272D-01  Symmetry=a2u

 Vector   13  Occ=0.000000D+00  E= 1.758074D-01  Symmetry=eu

 Vector   14  Occ=0.000000D+00  E= 1.758074D-01  Symmetry=eu

 Vector   15  Occ=0.000000D+00  E= 2.497261D-01  Symmetry=a1g

 Vector   16  Occ=0.000000D+00  E= 2.547323D-01  Symmetry=eg

 Vector   17  Occ=0.000000D+00  E= 2.547323D-01  Symmetry=eg

 Vector   18  Occ=0.000000D+00  E= 3.956059D-01  Symmetry=a2u

 Vector   19  Occ=0.000000D+00  E= 8.814267D-01  Symmetry=b2g

     Multipole analysis of the density
     ---------------------------------

     L   x y z        total         alpha         beta         nuclear
     -   - - -        -----         -----         ----         -------
     0   0 0 0     -0.000000     -9.000000     -9.000000     18.000000

     1   1 0 0      0.000000      0.000000      0.000000      0.000000
     1   0 1 0      0.000000      0.000000      0.000000      0.000000
     1   0 0 1      0.000000      0.000000      0.000000      0.000000

     2   2 0 0     -7.263395     -3.631697     -3.631697      0.000000
     2   1 1 0      0.000000      0.000000      0.000000      0.000000
     2   1 0 1      0.000000      0.000000      0.000000      0.000000
     2   0 2 0     -7.263395     -3.631697     -3.631697      0.000000
     2   0 1 1      0.000000      0.000000      0.000000      0.000000

         Total DFT energy =   -199.606849385892
@    2    -199.60684939 -2.1D-07  0.00002  0.00002  0.00029  0.00049      8.9
@    2    -199.60684939 -2.1D-07  0.00002  0.00002  0.00029  0.00049      8.9

 Output coordinates in angstroms (scale by  1.889725989 to convert to a.u.)

  No.       Tag          Charge          X              Y              Z
 ---- ---------------- ---------- -------------- -------------- --------------
    1 F                    9.0000     0.00000000     0.00000000    -0.70713679
    2 F                    9.0000     0.00000000     0.00000000     0.70713679

 Total times  cpu:        7.8s     wall:        9.0s
