 Output coordinates in angstroms (scale by  1.889725989 to convert to a.u.)

  No.       Tag          Charge          X              Y              Z
 ---- ---------------- ---------- -------------- -------------- --------------
    1 C                    6.0000    -0.61597000     0.00000000    -0.07514333
    2 H                    1.0000     0.00000000     0.00000000     1.04194667
    3 C                    6.0000     0.61597000     0.00000000    -0.07514333
    4 H                    1.0000    -1.69720000     0.00000000    -0.07011333
    5 H                    1.0000     1.69720000     0.00000000    -0.07011333

         Total DFT energy =      -77.605504639928

                       DFT Final Molecular Orbital Analysis
                       ------------------------------------

 Vector    1  Occ=2.000000D+00  E=-1.042490D+01  Symmetry=a1

 Vector    2  Occ=2.000000D+00  E=-1.042323D+01  Symmetry=b1

 Vector    3  Occ=2.000000D+00  E=-1.146539D+00  Symmetry=a1

 Vector    4  Occ=2.000000D+00  E=-8.840623D-01  Symmetry=b1

 Vector    5  Occ=2.000000D+00  E=-8.170892D-01  Symmetry=a1

 Vector    6  Occ=2.000000D+00  E=-7.590024D-01  Symmetry=a1

 Vector    7  Occ=2.000000D+00  E=-6.563853D-01  Symmetry=b2

 Vector    8  Occ=0.000000D+00  E=-4.107145D-01  Symmetry=b1

 Vector    9  Occ=0.000000D+00  E=-3.770617D-01  Symmetry=a2

 Vector   10  Occ=0.000000D+00  E=-3.022284D-01  Symmetry=a1

 Vector   11  Occ=0.000000D+00  E=-2.428742D-01  Symmetry=b1

 Vector   12  Occ=0.000000D+00  E=-1.807706D-01  Symmetry=a1

 Vector   13  Occ=0.000000D+00  E=-1.446335D-01  Symmetry=a1

 Vector   14  Occ=0.000000D+00  E=-1.285317D-01  Symmetry=a1

 Vector   15  Occ=0.000000D+00  E=-1.233835D-01  Symmetry=b2

 Vector   16  Occ=0.000000D+00  E=-1.080227D-01  Symmetry=b1

 Vector   17  Occ=0.000000D+00  E=-6.544180D-02  Symmetry=b2

 Vector   18  Occ=0.000000D+00  E=-5.797477D-02  Symmetry=b1

 Vector   19  Occ=0.000000D+00  E=-5.116592D-02  Symmetry=a2

 Vector   20  Occ=0.000000D+00  E=-4.806009D-02  Symmetry=a1

 Vector   21  Occ=0.000000D+00  E=-2.880363D-02  Symmetry=a1

 Vector   22  Occ=0.000000D+00  E=-1.181626D-02  Symmetry=b1

 Vector   23  Occ=0.000000D+00  E= 3.422190D-02  Symmetry=a1

 Vector   24  Occ=0.000000D+00  E= 5.664312D-02  Symmetry=a1

 Vector   25  Occ=0.000000D+00  E= 6.415864D-02  Symmetry=b2

 Vector   26  Occ=0.000000D+00  E= 9.126627D-02  Symmetry=a1

 Vector   27  Occ=0.000000D+00  E= 1.011163D-01  Symmetry=b1

 Vector   28  Occ=0.000000D+00  E= 1.359172D-01  Symmetry=a1

 Vector   29  Occ=0.000000D+00  E= 1.602128D-01  Symmetry=b1

 Vector   30  Occ=0.000000D+00  E= 1.725541D-01  Symmetry=a2

 Vector   31  Occ=0.000000D+00  E= 1.938833D-01  Symmetry=b2

 Vector   32  Occ=0.000000D+00  E= 2.105175D-01  Symmetry=b1

 Vector   33  Occ=0.000000D+00  E= 2.216064D-01  Symmetry=a1

 Vector   34  Occ=0.000000D+00  E= 2.217770D-01  Symmetry=a2

 Vector   35  Occ=0.000000D+00  E= 2.479797D-01  Symmetry=b1

 Vector   36  Occ=0.000000D+00  E= 2.873827D-01  Symmetry=b2

 Vector   37  Occ=0.000000D+00  E= 2.989510D-01  Symmetry=a1

 Vector   38  Occ=0.000000D+00  E= 3.331377D-01  Symmetry=a1

 Vector   39  Occ=0.000000D+00  E= 3.520494D-01  Symmetry=b1

 Vector   40  Occ=0.000000D+00  E= 3.741908D-01  Symmetry=a1

 Vector   41  Occ=0.000000D+00  E= 3.826796D-01  Symmetry=a2

 Vector   42  Occ=0.000000D+00  E= 3.920205D-01  Symmetry=b1

 Vector   43  Occ=0.000000D+00  E= 4.903740D-01  Symmetry=a1

 Vector   44  Occ=0.000000D+00  E= 5.132281D-01  Symmetry=b2

     Multipole analysis of the density
     ---------------------------------

     L   x y z        total         alpha         beta         nuclear
     -   - - -        -----         -----         ----         -------
     0   0 0 0      1.000000     -7.000000     -7.000000     15.000000

     1   1 0 0     -0.000000     -0.000000     -0.000000      0.000000
     1   0 1 0      0.000000      0.000000      0.000000      0.000000
     1   0 0 1      0.404210      0.202105      0.202105     -0.000000

     2   2 0 0     -1.383740    -19.107856    -19.107856     36.831972
     2   1 1 0      0.000000      0.000000      0.000000      0.000000
     2   1 0 1      0.000000      0.000000      0.000000      0.000000
     2   0 2 0     -9.441325     -4.720662     -4.720662      0.000000
     2   0 1 1     -0.000000     -0.000000     -0.000000      0.000000

 Total times  cpu:        3.4s     wall:        4.4s
