 Output coordinates in angstroms (scale by  1.889725989 to convert to a.u.)

  No.       Tag          Charge          X              Y              Z
 ---- ---------------- ---------- -------------- -------------- --------------
    1 C                    6.0000     0.00000000     0.00000000     0.60808000
    2 C                    6.0000     0.00000000     0.00000000    -0.60808000
    3 H                    1.0000     0.00000000     0.00000000    -1.67399000
    4 H                    1.0000     0.00000000     0.00000000     1.67399000

         Total DFT energy =      -77.348799789703

                       DFT Final Molecular Orbital Analysis
                       ------------------------------------

 Vector    1  Occ=2.000000D+00  E=-1.008092D+01  Symmetry=a1g

 Vector    2  Occ=2.000000D+00  E=-1.007902D+01  Symmetry=a2u

 Vector    3  Occ=2.000000D+00  E=-7.565326D-01  Symmetry=a1g

 Vector    4  Occ=2.000000D+00  E=-5.851276D-01  Symmetry=a2u

 Vector    5  Occ=2.000000D+00  E=-5.097179D-01  Symmetry=a1g

 Vector    6  Occ=2.000000D+00  E=-3.362255D-01  Symmetry=eu

 Vector    7  Occ=2.000000D+00  E=-3.362255D-01  Symmetry=eu

 Vector    8  Occ=0.000000D+00  E=-8.191148D-02  Symmetry=eg

 Vector    9  Occ=0.000000D+00  E=-8.191148D-02  Symmetry=eg

 Vector   10  Occ=0.000000D+00  E=-4.463710D-03  Symmetry=a2u

 Vector   11  Occ=0.000000D+00  E=-1.599145D-03  Symmetry=a1g

 Vector   12  Occ=0.000000D+00  E= 2.763978D-02  Symmetry=a1g

 Vector   13  Occ=0.000000D+00  E= 5.814154D-02  Symmetry=eu

 Vector   14  Occ=0.000000D+00  E= 5.814154D-02  Symmetry=eu

 Vector   15  Occ=0.000000D+00  E= 7.953598D-02  Symmetry=a2u

 Vector   16  Occ=0.000000D+00  E= 1.100750D-01  Symmetry=a1g

 Vector   17  Occ=0.000000D+00  E= 1.145660D-01  Symmetry=eg

 Vector   18  Occ=0.000000D+00  E= 1.145660D-01  Symmetry=eg

 Vector   19  Occ=0.000000D+00  E= 1.360112D-01  Symmetry=a2u

 Vector   20  Occ=0.000000D+00  E= 2.049653D-01  Symmetry=a1g

 Vector   21  Occ=0.000000D+00  E= 2.104696D-01  Symmetry=b1g

 Vector   22  Occ=0.000000D+00  E= 2.104718D-01  Symmetry=b2g

 Vector   23  Occ=0.000000D+00  E= 2.876503D-01  Symmetry=eu

 Vector   24  Occ=0.000000D+00  E= 2.876503D-01  Symmetry=eu

 Vector   25  Occ=0.000000D+00  E= 2.894863D-01  Symmetry=a2u

 Vector   26  Occ=0.000000D+00  E= 2.962388D-01  Symmetry=a1g

 Vector   27  Occ=0.000000D+00  E= 4.044967D-01  Symmetry=b2u

 Vector   28  Occ=0.000000D+00  E= 4.044972D-01  Symmetry=b1u

 Vector   29  Occ=0.000000D+00  E= 4.321328D-01  Symmetry=eu

 Vector   30  Occ=0.000000D+00  E= 4.321328D-01  Symmetry=eu

 Vector   31  Occ=0.000000D+00  E= 4.395915D-01  Symmetry=a2u

 Vector   32  Occ=0.000000D+00  E= 4.427986D-01  Symmetry=eg

 Vector   33  Occ=0.000000D+00  E= 4.427986D-01  Symmetry=eg

 Vector   34  Occ=0.000000D+00  E= 4.892064D-01  Symmetry=a1g

 Vector   35  Occ=0.000000D+00  E= 5.638457D-01  Symmetry=a1g

     Multipole analysis of the density
     ---------------------------------

     L   x y z        total         alpha         beta         nuclear
     -   - - -        -----         -----         ----         -------
     0   0 0 0     -0.000000     -7.000000     -7.000000     14.000000

     1   1 0 0     -0.000000     -0.000000     -0.000000      0.000000
     1   0 1 0      0.000000      0.000000      0.000000      0.000000
     1   0 0 1      0.000000      0.000000      0.000000      0.000000

     2   2 0 0    -10.703821     -5.351911     -5.351911      0.000000
     2   1 1 0     -0.000000     -0.000000     -0.000000      0.000000
     2   1 0 1      0.000000      0.000000      0.000000      0.000000
     2   0 2 0    -10.703821     -5.351911     -5.351911      0.000000
     2   0 1 1      0.000000      0.000000      0.000000      0.000000

 Total times  cpu:        2.4s     wall:        3.2s
