 Output coordinates in angstroms (scale by  1.889725989 to convert to a.u.)

  No.       Tag          Charge          X              Y              Z
 ---- ---------------- ---------- -------------- -------------- --------------
    1 H                    1.0000     0.34745473     0.34745473     0.00000000
    2 H                    1.0000    -0.47463198     0.12717726     0.00000000
    3 H                    1.0000     0.12717726    -0.47463198     0.00000000

         Total DFT energy =       -1.343802961130

                       DFT Final Molecular Orbital Analysis
                       ------------------------------------

 Vector    1  Occ=2.000000D+00  E=-1.036951D+00  Symmetry=a1'

 Vector    2  Occ=0.000000D+00  E=-3.567846D-01  Symmetry=e'

 Vector    3  Occ=0.000000D+00  E=-3.567846D-01  Symmetry=e'

 Vector    4  Occ=0.000000D+00  E=-1.835433D-01  Symmetry=a2"

 Vector    5  Occ=0.000000D+00  E=-1.818152D-01  Symmetry=a1'

 Vector    6  Occ=0.000000D+00  E=-7.574188D-02  Symmetry=e'

 Vector    7  Occ=0.000000D+00  E=-7.574188D-02  Symmetry=e'

 Vector    8  Occ=0.000000D+00  E= 4.139440D-02  Symmetry=a1'

 Vector    9  Occ=0.000000D+00  E= 8.826867D-02  Symmetry=e'

 Vector   10  Occ=0.000000D+00  E= 8.826867D-02  Symmetry=e'

 Vector   11  Occ=0.000000D+00  E= 1.350305D-01  Symmetry=e"

 Vector   12  Occ=0.000000D+00  E= 1.350305D-01  Symmetry=e"

 Vector   13  Occ=0.000000D+00  E= 1.509600D-01  Symmetry=e'

 Vector   14  Occ=0.000000D+00  E= 1.509600D-01  Symmetry=e'

 Vector   15  Occ=0.000000D+00  E= 1.886975D-01  Symmetry=a1'

 Vector   16  Occ=0.000000D+00  E= 3.823580D-01  Symmetry=a2'

 Vector   17  Occ=0.000000D+00  E= 6.344551D-01  Symmetry=e'

     Multipole analysis of the density
     ---------------------------------

     L   x y z        total         alpha         beta         nuclear
     -   - - -        -----         -----         ----         -------
     0   0 0 0      1.000000     -1.000000     -1.000000      3.000000

     1   1 0 0      0.000000     -0.000000     -0.000000      0.000000
     1   0 1 0      0.000000     -0.000000     -0.000000      0.000000
     1   0 0 1      0.000000      0.000000      0.000000      0.000000

     2   2 0 0     -0.232799     -0.763073     -0.763073      1.293348
     2   1 1 0      0.000000     -0.000000     -0.000000      0.000000
     2   1 0 1      0.000000      0.000000      0.000000      0.000000
     2   0 2 0     -0.232799     -0.763073     -0.763073      1.293348
     2   0 1 1      0.000000      0.000000      0.000000      0.000000

 Total times  cpu:        0.5s     wall:        1.2s
