 Output coordinates in angstroms (scale by  1.889725989 to convert to a.u.)

  No.       Tag          Charge          X              Y              Z
 ---- ---------------- ---------- -------------- -------------- --------------
    1 H                    1.0000     0.00000000     0.00000000     0.36858000
    2 H                    1.0000     0.00000000     0.00000000    -0.36858000

         Total DFT energy =       -1.169379202316

                       DFT Final Molecular Orbital Analysis
                       ------------------------------------

 Vector    1  Occ=2.000000D+00  E=-4.302225D-01  Symmetry=a1g

 Vector    2  Occ=0.000000D+00  E= 1.940884D-04  Symmetry=a2u

 Vector    3  Occ=0.000000D+00  E= 3.185624D-02  Symmetry=a1g

 Vector    4  Occ=0.000000D+00  E= 1.129444D-01  Symmetry=a2u

 Vector    5  Occ=0.000000D+00  E= 1.599956D-01  Symmetry=eu

 Vector    6  Occ=0.000000D+00  E= 1.599956D-01  Symmetry=eu

 Vector    7  Occ=0.000000D+00  E= 3.152959D-01  Symmetry=a1g

 Vector    8  Occ=0.000000D+00  E= 4.093220D-01  Symmetry=a2u

 Vector    9  Occ=0.000000D+00  E= 4.329497D-01  Symmetry=eg

 Vector   10  Occ=0.000000D+00  E= 4.329497D-01  Symmetry=eg

 Vector   11  Occ=0.000000D+00  E= 4.390724D-01  Symmetry=a1g

 Vector   12  Occ=0.000000D+00  E= 9.326182D-01  Symmetry=a2u

     Multipole analysis of the density
     ---------------------------------

     L   x y z        total         alpha         beta         nuclear
     -   - - -        -----         -----         ----         -------
     0   0 0 0     -0.000000     -1.000000     -1.000000      2.000000

     1   1 0 0      0.000000      0.000000      0.000000      0.000000
     1   0 1 0     -0.000000     -0.000000     -0.000000      0.000000
     1   0 0 1     -0.000000     -0.000000     -0.000000      0.000000

     2   2 0 0     -1.632049     -0.816024     -0.816024      0.000000
     2   1 1 0      0.000000      0.000000      0.000000      0.000000
     2   1 0 1      0.000000      0.000000      0.000000      0.000000
     2   0 2 0     -1.632049     -0.816024     -0.816024      0.000000
     2   0 1 1     -0.000000     -0.000000     -0.000000      0.000000

 Total times  cpu:        0.5s     wall:        1.1s
