 Output coordinates in angstroms (scale by  1.889725989 to convert to a.u.)

  No.       Tag          Charge          X              Y              Z
 ---- ---------------- ---------- -------------- -------------- --------------
    1 O                    8.0000     0.00000000     0.00000000    -0.08099492
    2 H                    1.0000     0.66840471     0.66840471     0.21598645
    3 H                    1.0000    -0.91305781     0.24465310     0.21598645
    4 H                    1.0000     0.24465310    -0.91305781     0.21598645

         Total DFT energy =      -76.732943845664

                       DFT Final Molecular Orbital Analysis
                       ------------------------------------

 Vector    1  Occ=2.000000D+00  E=-1.938728D+01  Symmetry=a1

 Vector    2  Occ=2.000000D+00  E=-1.435244D+00  Symmetry=a1

 Vector    3  Occ=2.000000D+00  E=-9.429938D-01  Symmetry=e

 Vector    4  Occ=2.000000D+00  E=-9.429938D-01  Symmetry=e

 Vector    5  Occ=2.000000D+00  E=-7.627519D-01  Symmetry=a1

 Vector    6  Occ=0.000000D+00  E=-3.282324D-01  Symmetry=a1

 Vector    7  Occ=0.000000D+00  E=-2.396149D-01  Symmetry=e

 Vector    8  Occ=0.000000D+00  E=-2.396149D-01  Symmetry=e

 Vector    9  Occ=0.000000D+00  E=-1.189992D-01  Symmetry=e

 Vector   10  Occ=0.000000D+00  E=-1.189992D-01  Symmetry=e

 Vector   11  Occ=0.000000D+00  E=-1.161715D-01  Symmetry=a1

 Vector   12  Occ=0.000000D+00  E=-8.926180D-02  Symmetry=a1

 Vector   13  Occ=0.000000D+00  E=-2.022256D-02  Symmetry=e

 Vector   14  Occ=0.000000D+00  E=-2.022256D-02  Symmetry=e

 Vector   15  Occ=0.000000D+00  E=-1.689489D-02  Symmetry=a1

 Vector   16  Occ=0.000000D+00  E= 5.055330D-03  Symmetry=e

 Vector   17  Occ=0.000000D+00  E= 5.055330D-03  Symmetry=e

 Vector   18  Occ=0.000000D+00  E= 1.526587D-01  Symmetry=e

 Vector   19  Occ=0.000000D+00  E= 1.526587D-01  Symmetry=e

 Vector   20  Occ=0.000000D+00  E= 1.852383D-01  Symmetry=a1

 Vector   21  Occ=0.000000D+00  E= 2.204327D-01  Symmetry=a1

 Vector   22  Occ=0.000000D+00  E= 2.499165D-01  Symmetry=a2

 Vector   23  Occ=0.000000D+00  E= 2.861517D-01  Symmetry=e

 Vector   24  Occ=0.000000D+00  E= 2.861517D-01  Symmetry=e

 Vector   25  Occ=0.000000D+00  E= 3.572344D-01  Symmetry=a1

 Vector   26  Occ=0.000000D+00  E= 4.430800D-01  Symmetry=e

 Vector   27  Occ=0.000000D+00  E= 4.430800D-01  Symmetry=e

 Vector   28  Occ=0.000000D+00  E= 5.179953D-01  Symmetry=a1

     Multipole analysis of the density
     ---------------------------------

     L   x y z        total         alpha         beta         nuclear
     -   - - -        -----         -----         ----         -------
     0   0 0 0      1.000000     -5.000000     -5.000000     11.000000

     1   1 0 0     -0.000000     -0.000000     -0.000000     -0.000000
     1   0 1 0     -0.000000     -0.000000     -0.000000     -0.000000
     1   0 0 1      0.598184      0.299092      0.299092      0.000000

     2   2 0 0     -1.903447     -3.344863     -3.344863      4.786278
     2   1 1 0     -0.000000      0.000000      0.000000     -0.000000
     2   1 0 1     -0.000000      0.000000      0.000000     -0.000000
     2   0 2 0     -1.903447     -3.344863     -3.344863      4.786278
     2   0 1 1     -0.000000     -0.000000     -0.000000      0.000000

 Total times  cpu:        1.6s     wall:        2.6s
