 Output coordinates in angstroms (scale by  1.889725989 to convert to a.u.)

  No.       Tag          Charge          X              Y              Z
 ---- ---------------- ---------- -------------- -------------- --------------
    1 O                    8.0000     0.00000000     0.00000000     0.11926200
    2 H                    1.0000    -0.76324000     0.00000000    -0.47704800
    3 H                    1.0000     0.76324000     0.00000000    -0.47704800

         Total DFT energy =      -76.456109122163

                       DFT Final Molecular Orbital Analysis
                       ------------------------------------

 Vector    1  Occ=2.000000D+00  E=-1.896905D+01  Symmetry=a1

 Vector    2  Occ=2.000000D+00  E=-1.005061D+00  Symmetry=a1

 Vector    3  Occ=2.000000D+00  E=-5.466133D-01  Symmetry=b1

 Vector    4  Occ=2.000000D+00  E=-4.179921D-01  Symmetry=a1

 Vector    5  Occ=2.000000D+00  E=-3.431905D-01  Symmetry=b2

 Vector    6  Occ=0.000000D+00  E=-4.666678D-02  Symmetry=a1

 Vector    7  Occ=0.000000D+00  E= 1.876050D-02  Symmetry=b1

 Vector    8  Occ=0.000000D+00  E= 1.034932D-01  Symmetry=a1

 Vector    9  Occ=0.000000D+00  E= 1.089277D-01  Symmetry=b1

 Vector   10  Occ=0.000000D+00  E= 1.365465D-01  Symmetry=b2

 Vector   11  Occ=0.000000D+00  E= 1.389071D-01  Symmetry=a1

 Vector   12  Occ=0.000000D+00  E= 1.831861D-01  Symmetry=a1

 Vector   13  Occ=0.000000D+00  E= 2.031524D-01  Symmetry=b1

 Vector   14  Occ=0.000000D+00  E= 2.754533D-01  Symmetry=a1

 Vector   15  Occ=0.000000D+00  E= 3.018041D-01  Symmetry=a2

 Vector   16  Occ=0.000000D+00  E= 3.392483D-01  Symmetry=b2

 Vector   17  Occ=0.000000D+00  E= 3.856726D-01  Symmetry=b1

 Vector   18  Occ=0.000000D+00  E= 4.408022D-01  Symmetry=a1

 Vector   19  Occ=0.000000D+00  E= 5.215416D-01  Symmetry=b1

     Multipole analysis of the density
     ---------------------------------

     L   x y z        total         alpha         beta         nuclear
     -   - - -        -----         -----         ----         -------
     0   0 0 0     -0.000000     -5.000000     -5.000000     10.000000

     1   1 0 0     -0.000000     -0.000000     -0.000000      0.000000
     1   0 1 0     -0.000000     -0.000000     -0.000000      0.000000
     1   0 0 1     -0.754744     -0.377372     -0.377372      0.000000

     2   2 0 0     -3.336476     -3.748509     -3.748509      4.160542
     2   1 1 0     -0.000000     -0.000000     -0.000000      0.000000
     2   1 0 1      0.000000      0.000000      0.000000      0.000000
     2   0 2 0     -5.880334     -2.940167     -2.940167      0.000000
     2   0 1 1     -0.000000     -0.000000     -0.000000      0.000000

 Total times  cpu:        1.1s     wall:        1.8s
