 Output coordinates in angstroms (scale by  1.889725989 to convert to a.u.)

  No.       Tag          Charge          X              Y              Z
 ---- ---------------- ---------- -------------- -------------- --------------
    1 S                   16.0000     0.00000000     0.00000000     0.10906895
    2 H                    1.0000     0.81766473     0.81766473    -0.58170105
    3 H                    1.0000     0.29928606    -1.11695079    -0.58170105
    4 H                    1.0000    -1.11695079     0.29928606    -0.58170105

         Total DFT energy =     -399.738559575975

                       DFT Final Molecular Orbital Analysis
                       ------------------------------------

 Vector    1  Occ=2.000000D+00  E=-8.878207D+01  Symmetry=a1

 Vector    2  Occ=2.000000D+00  E=-8.181021D+00  Symmetry=a1

 Vector    3  Occ=2.000000D+00  E=-6.161240D+00  Symmetry=e

 Vector    4  Occ=2.000000D+00  E=-6.161240D+00  Symmetry=e

 Vector    5  Occ=2.000000D+00  E=-6.156661D+00  Symmetry=a1

 Vector    6  Occ=2.000000D+00  E=-1.094265D+00  Symmetry=a1

 Vector    7  Occ=2.000000D+00  E=-7.761379D-01  Symmetry=e

 Vector    8  Occ=2.000000D+00  E=-7.761379D-01  Symmetry=e

 Vector    9  Occ=2.000000D+00  E=-6.756756D-01  Symmetry=a1

 Vector   10  Occ=0.000000D+00  E=-3.532526D-01  Symmetry=e

 Vector   11  Occ=0.000000D+00  E=-3.532526D-01  Symmetry=e

 Vector   12  Occ=0.000000D+00  E=-2.915450D-01  Symmetry=a1

 Vector   13  Occ=0.000000D+00  E=-1.995403D-01  Symmetry=e

 Vector   14  Occ=0.000000D+00  E=-1.995403D-01  Symmetry=e

 Vector   15  Occ=0.000000D+00  E=-1.969811D-01  Symmetry=a1

 Vector   16  Occ=0.000000D+00  E=-1.396385D-01  Symmetry=e

 Vector   17  Occ=0.000000D+00  E=-1.396385D-01  Symmetry=e

 Vector   18  Occ=0.000000D+00  E=-1.179135D-01  Symmetry=a1

 Vector   19  Occ=0.000000D+00  E=-7.560672D-02  Symmetry=a1

 Vector   20  Occ=0.000000D+00  E=-4.392625D-02  Symmetry=e

 Vector   21  Occ=0.000000D+00  E=-4.392625D-02  Symmetry=e

 Vector   22  Occ=0.000000D+00  E= 1.101040D-03  Symmetry=a1

 Vector   23  Occ=0.000000D+00  E= 4.086108D-02  Symmetry=e

 Vector   24  Occ=0.000000D+00  E= 4.086108D-02  Symmetry=e

 Vector   25  Occ=0.000000D+00  E= 6.973235D-02  Symmetry=a1

 Vector   26  Occ=0.000000D+00  E= 1.224221D-01  Symmetry=e

 Vector   27  Occ=0.000000D+00  E= 1.224221D-01  Symmetry=e

 Vector   28  Occ=0.000000D+00  E= 1.469055D-01  Symmetry=a2

 Vector   29  Occ=0.000000D+00  E= 1.675231D-01  Symmetry=e

 Vector   30  Occ=0.000000D+00  E= 1.675231D-01  Symmetry=e

 Vector   31  Occ=0.000000D+00  E= 1.720704D-01  Symmetry=e

 Vector   32  Occ=0.000000D+00  E= 1.720704D-01  Symmetry=e

 Vector   33  Occ=0.000000D+00  E= 1.965027D-01  Symmetry=a1

 Vector   34  Occ=0.000000D+00  E= 2.076327D-01  Symmetry=a1

 Vector   35  Occ=0.000000D+00  E= 3.332670D-01  Symmetry=a1

 Vector   36  Occ=0.000000D+00  E= 3.477124D-01  Symmetry=e

 Vector   37  Occ=0.000000D+00  E= 3.477124D-01  Symmetry=e

 Vector   38  Occ=0.000000D+00  E= 5.106900D-01  Symmetry=a1

     Multipole analysis of the density
     ---------------------------------

     L   x y z        total         alpha         beta         nuclear
     -   - - -        -----         -----         ----         -------
     0   0 0 0      1.000000     -9.000000     -9.000000     19.000000

     1   1 0 0      0.000000      0.000000      0.000000      0.000000
     1   0 1 0      0.000000      0.000000      0.000000     -0.000000
     1   0 0 1     -0.633349     -0.316675     -0.316675      0.000000

     2   2 0 0     -7.219237     -7.190908     -7.190908      7.162579
     2   1 1 0      0.000000      0.000000      0.000000      0.000000
     2   1 0 1      0.000000     -0.000000     -0.000000      0.000000
     2   0 2 0     -7.219237     -7.190908     -7.190908      7.162579
     2   0 1 1     -0.000000     -0.000000     -0.000000      0.000000

 Total times  cpu:        1.7s     wall:        2.5s
