 Output coordinates in angstroms (scale by  1.889725989 to convert to a.u.)

  No.       Tag          Charge          X              Y              Z
 ---- ---------------- ---------- -------------- -------------- --------------
    1 S                   16.0000     0.00000000     0.00000000     0.10213556
    2 H                    1.0000    -0.97427000     0.00000000    -0.81708444
    3 H                    1.0000     0.97427000     0.00000000    -0.81708444

         Total DFT energy =     -399.459541507702

                       DFT Final Molecular Orbital Analysis
                       ------------------------------------

 Vector    1  Occ=2.000000D+00  E=-8.843422D+01  Symmetry=a1

 Vector    2  Occ=2.000000D+00  E=-7.834702D+00  Symmetry=a1

 Vector    3  Occ=2.000000D+00  E=-5.817403D+00  Symmetry=b1

 Vector    4  Occ=2.000000D+00  E=-5.814605D+00  Symmetry=a1

 Vector    5  Occ=2.000000D+00  E=-5.807867D+00  Symmetry=b2

 Vector    6  Occ=2.000000D+00  E=-7.442820D-01  Symmetry=a1

 Vector    7  Occ=2.000000D+00  E=-4.655639D-01  Symmetry=b1

 Vector    8  Occ=2.000000D+00  E=-3.930541D-01  Symmetry=a1

 Vector    9  Occ=2.000000D+00  E=-2.951735D-01  Symmetry=b2

 Vector   10  Occ=0.000000D+00  E=-7.242391D-02  Symmetry=b1

 Vector   11  Occ=0.000000D+00  E=-5.530883D-02  Symmetry=a1

 Vector   12  Occ=0.000000D+00  E= 2.828453D-02  Symmetry=a1

 Vector   13  Occ=0.000000D+00  E= 3.093728D-02  Symmetry=b1

 Vector   14  Occ=0.000000D+00  E= 4.192350D-02  Symmetry=a1

 Vector   15  Occ=0.000000D+00  E= 4.916018D-02  Symmetry=b2

 Vector   16  Occ=0.000000D+00  E= 7.524302D-02  Symmetry=a1

 Vector   17  Occ=0.000000D+00  E= 8.696636D-02  Symmetry=a1

 Vector   18  Occ=0.000000D+00  E= 9.628088D-02  Symmetry=b1

 Vector   19  Occ=0.000000D+00  E= 9.909963D-02  Symmetry=a2

 Vector   20  Occ=0.000000D+00  E= 1.096674D-01  Symmetry=b2

 Vector   21  Occ=0.000000D+00  E= 2.339260D-01  Symmetry=b1

 Vector   22  Occ=0.000000D+00  E= 2.462276D-01  Symmetry=a1

 Vector   23  Occ=0.000000D+00  E= 2.554802D-01  Symmetry=a1

 Vector   24  Occ=0.000000D+00  E= 2.752277D-01  Symmetry=b2

 Vector   25  Occ=0.000000D+00  E= 3.242969D-01  Symmetry=b1

 Vector   26  Occ=0.000000D+00  E= 3.580699D-01  Symmetry=a1

 Vector   27  Occ=0.000000D+00  E= 3.794850D-01  Symmetry=b1

 Vector   28  Occ=0.000000D+00  E= 3.968216D-01  Symmetry=a1

 Vector   29  Occ=0.000000D+00  E= 4.017109D-01  Symmetry=a2

 Vector   30  Occ=0.000000D+00  E= 4.404137D-01  Symmetry=b2

 Vector   31  Occ=0.000000D+00  E= 4.823719D-01  Symmetry=a1

 Vector   32  Occ=0.000000D+00  E= 4.864682D-01  Symmetry=b1

 Vector   33  Occ=0.000000D+00  E= 7.152373D-01  Symmetry=a1

     Multipole analysis of the density
     ---------------------------------

     L   x y z        total         alpha         beta         nuclear
     -   - - -        -----         -----         ----         -------
     0   0 0 0     -0.000000     -9.000000     -9.000000     18.000000

     1   1 0 0      0.000000      0.000000      0.000000      0.000000
     1   0 1 0      0.000000      0.000000      0.000000      0.000000
     1   0 0 1     -0.419733     -0.209866     -0.209866      0.000000

     2   2 0 0     -9.411701     -8.095512     -8.095512      6.779323
     2   1 1 0      0.000000      0.000000      0.000000      0.000000
     2   1 0 1     -0.000000     -0.000000     -0.000000      0.000000
     2   0 2 0    -12.704076     -6.352038     -6.352038      0.000000
     2   0 1 1     -0.000000     -0.000000     -0.000000      0.000000

 Total times  cpu:        1.6s     wall:        2.6s
