 Output coordinates in angstroms (scale by  1.889725989 to convert to a.u.)

  No.       Tag          Charge          X              Y              Z
 ---- ---------------- ---------- -------------- -------------- --------------
    1 Cl                  17.0000     0.00000000     0.00000000    -0.09115219
    2 H                    1.0000    -0.97252313     0.00000000     0.77479365
    3 H                    1.0000     0.97252313     0.00000000     0.77479365

         Total DFT energy =     -461.099386683113

                       DFT Final Molecular Orbital Analysis
                       ------------------------------------

 Vector    1  Occ=2.000000D+00  E=-1.014780D+02  Symmetry=a1

 Vector    2  Occ=2.000000D+00  E=-9.730650D+00  Symmetry=a1

 Vector    3  Occ=2.000000D+00  E=-7.512019D+00  Symmetry=b1

 Vector    4  Occ=2.000000D+00  E=-7.508557D+00  Symmetry=a1

 Vector    5  Occ=2.000000D+00  E=-7.500788D+00  Symmetry=b2

 Vector    6  Occ=2.000000D+00  E=-1.227609D+00  Symmetry=a1

 Vector    7  Occ=2.000000D+00  E=-8.707123D-01  Symmetry=b1

 Vector    8  Occ=2.000000D+00  E=-7.993010D-01  Symmetry=a1

 Vector    9  Occ=2.000000D+00  E=-7.053364D-01  Symmetry=b2

 Vector   10  Occ=0.000000D+00  E=-3.915643D-01  Symmetry=b1

 Vector   11  Occ=0.000000D+00  E=-3.530576D-01  Symmetry=a1

 Vector   12  Occ=0.000000D+00  E=-2.184441D-01  Symmetry=a1

 Vector   13  Occ=0.000000D+00  E=-1.808373D-01  Symmetry=a1

 Vector   14  Occ=0.000000D+00  E=-1.736209D-01  Symmetry=a2

 Vector   15  Occ=0.000000D+00  E=-1.632350D-01  Symmetry=b2

 Vector   16  Occ=0.000000D+00  E=-1.493655D-01  Symmetry=b1

 Vector   17  Occ=0.000000D+00  E=-1.220628D-01  Symmetry=a1

 Vector   18  Occ=0.000000D+00  E=-1.142440D-01  Symmetry=b2

 Vector   19  Occ=0.000000D+00  E=-6.667025D-02  Symmetry=a1

 Vector   20  Occ=0.000000D+00  E=-4.059382D-02  Symmetry=b1

 Vector   21  Occ=0.000000D+00  E= 3.850838D-02  Symmetry=b1

 Vector   22  Occ=0.000000D+00  E= 4.852278D-02  Symmetry=a1

 Vector   23  Occ=0.000000D+00  E= 1.140477D-01  Symmetry=a1

 Vector   24  Occ=0.000000D+00  E= 1.493580D-01  Symmetry=b2

 Vector   25  Occ=0.000000D+00  E= 1.547920D-01  Symmetry=a1

 Vector   26  Occ=0.000000D+00  E= 1.561774D-01  Symmetry=b1

 Vector   27  Occ=0.000000D+00  E= 1.800888D-01  Symmetry=a2

 Vector   28  Occ=0.000000D+00  E= 1.936976D-01  Symmetry=b1

 Vector   29  Occ=0.000000D+00  E= 2.040545D-01  Symmetry=a1

 Vector   30  Occ=0.000000D+00  E= 2.193832D-01  Symmetry=b2

 Vector   31  Occ=0.000000D+00  E= 2.586150D-01  Symmetry=a1

 Vector   32  Occ=0.000000D+00  E= 2.815802D-01  Symmetry=b1

 Vector   33  Occ=0.000000D+00  E= 5.431479D-01  Symmetry=a1

     Multipole analysis of the density
     ---------------------------------

     L   x y z        total         alpha         beta         nuclear
     -   - - -        -----         -----         ----         -------
     0   0 0 0      1.000000     -9.000000     -9.000000     19.000000

     1   1 0 0      0.000000      0.000000      0.000000      0.000000
     1   0 1 0      0.000000      0.000000      0.000000      0.000000
     1   0 0 1      0.782834      0.391417      0.391417      0.000000

     2   2 0 0     -5.516664     -6.135849     -6.135849      6.755034
     2   1 1 0      0.000000      0.000000      0.000000      0.000000
     2   1 0 1     -0.000000     -0.000000     -0.000000      0.000000
     2   0 2 0     -9.390582     -4.695291     -4.695291      0.000000
     2   0 1 1     -0.000000     -0.000000     -0.000000      0.000000

 Total times  cpu:        1.5s     wall:        2.3s
