 Output coordinates in angstroms (scale by  1.889725989 to convert to a.u.)

  No.       Tag          Charge          X              Y              Z
 ---- ---------------- ---------- -------------- -------------- --------------
    1 Cl                  17.0000     0.00000000     0.00000000     0.07111000
    2 H                    1.0000     0.00000000     0.00000000    -1.20887000

         Total DFT energy =     -460.877417591711

                       DFT Final Molecular Orbital Analysis
                       ------------------------------------

 Vector    1  Occ=2.000000D+00  E=-1.010970D+02  Symmetry=a1

 Vector    2  Occ=2.000000D+00  E=-9.353162D+00  Symmetry=a1

 Vector    3  Occ=2.000000D+00  E=-7.135726D+00  Symmetry=a1

 Vector    4  Occ=2.000000D+00  E=-7.126191D+00  Symmetry=e

 Vector    5  Occ=2.000000D+00  E=-7.126191D+00  Symmetry=e

 Vector    6  Occ=2.000000D+00  E=-8.437118D-01  Symmetry=a1

 Vector    7  Occ=2.000000D+00  E=-4.948934D-01  Symmetry=a1

 Vector    8  Occ=2.000000D+00  E=-3.630749D-01  Symmetry=e

 Vector    9  Occ=2.000000D+00  E=-3.630749D-01  Symmetry=e

 Vector   10  Occ=0.000000D+00  E=-7.653203D-02  Symmetry=a1

 Vector   11  Occ=0.000000D+00  E= 9.770425D-03  Symmetry=a1

 Vector   12  Occ=0.000000D+00  E= 5.204572D-02  Symmetry=a1

 Vector   13  Occ=0.000000D+00  E= 6.350669D-02  Symmetry=e

 Vector   14  Occ=0.000000D+00  E= 6.350669D-02  Symmetry=e

 Vector   15  Occ=0.000000D+00  E= 1.028689D-01  Symmetry=a1

 Vector   16  Occ=0.000000D+00  E= 1.206608D-01  Symmetry=e

 Vector   17  Occ=0.000000D+00  E= 1.206608D-01  Symmetry=e

 Vector   18  Occ=0.000000D+00  E= 1.737915D-01  Symmetry=b2

 Vector   19  Occ=0.000000D+00  E= 1.737978D-01  Symmetry=b1

 Vector   20  Occ=0.000000D+00  E= 2.449951D-01  Symmetry=a1

 Vector   21  Occ=0.000000D+00  E= 3.376895D-01  Symmetry=a1

 Vector   22  Occ=0.000000D+00  E= 3.734114D-01  Symmetry=e

 Vector   23  Occ=0.000000D+00  E= 3.734114D-01  Symmetry=e

 Vector   24  Occ=0.000000D+00  E= 4.104044D-01  Symmetry=a1

 Vector   25  Occ=0.000000D+00  E= 4.421062D-01  Symmetry=e

 Vector   26  Occ=0.000000D+00  E= 4.421062D-01  Symmetry=e

 Vector   27  Occ=0.000000D+00  E= 4.739661D-01  Symmetry=a1

 Vector   28  Occ=0.000000D+00  E= 7.790374D-01  Symmetry=a1

     Multipole analysis of the density
     ---------------------------------

     L   x y z        total         alpha         beta         nuclear
     -   - - -        -----         -----         ----         -------
     0   0 0 0     -0.000000     -9.000000     -9.000000     18.000000

     1   1 0 0      0.000000      0.000000      0.000000      0.000000
     1   0 1 0      0.000000      0.000000      0.000000      0.000000
     1   0 0 1     -0.459397     -0.229698     -0.229698      0.000000

     2   2 0 0    -10.640003     -5.320001     -5.320001      0.000000
     2   1 1 0      0.000000      0.000000      0.000000      0.000000
     2   1 0 1      0.000000      0.000000      0.000000      0.000000
     2   0 2 0    -10.640003     -5.320001     -5.320001      0.000000
     2   0 1 1      0.000000      0.000000      0.000000      0.000000

 Total times  cpu:        1.0s     wall:        1.9s
