 Output coordinates in angstroms (scale by  1.889725989 to convert to a.u.)

  No.       Tag          Charge          X              Y              Z
 ---- ---------------- ---------- -------------- -------------- --------------
    1 N                    7.0000     0.00000000     0.00000000     0.11649000
    2 H                    1.0000    -0.66448826    -0.66448826    -0.27181000
    3 H                    1.0000    -0.24321958     0.90770784    -0.27181000
    4 H                    1.0000     0.90770784    -0.24321958    -0.27181000

         Total DFT energy =      -56.570826926486

                       DFT Final Molecular Orbital Analysis
                       ------------------------------------

 Vector    1  Occ=2.000000D+00  E=-1.415738D+01  Symmetry=a1

 Vector    2  Occ=2.000000D+00  E=-8.491332D-01  Symmetry=a1

 Vector    3  Occ=2.000000D+00  E=-4.770927D-01  Symmetry=e

 Vector    4  Occ=2.000000D+00  E=-4.770927D-01  Symmetry=e

 Vector    5  Occ=2.000000D+00  E=-3.008510D-01  Symmetry=a1

 Vector    6  Occ=0.000000D+00  E=-3.740821D-02  Symmetry=a1

 Vector    7  Occ=0.000000D+00  E= 2.594263D-02  Symmetry=e

 Vector    8  Occ=0.000000D+00  E= 2.594263D-02  Symmetry=e

 Vector    9  Occ=0.000000D+00  E= 8.282042D-02  Symmetry=a1

 Vector   10  Occ=0.000000D+00  E= 9.315247D-02  Symmetry=e

 Vector   11  Occ=0.000000D+00  E= 9.315247D-02  Symmetry=e

 Vector   12  Occ=0.000000D+00  E= 1.089248D-01  Symmetry=a1

 Vector   13  Occ=0.000000D+00  E= 1.625724D-01  Symmetry=e

 Vector   14  Occ=0.000000D+00  E= 1.625724D-01  Symmetry=e

 Vector   15  Occ=0.000000D+00  E= 1.716650D-01  Symmetry=a1

 Vector   16  Occ=0.000000D+00  E= 2.291579D-01  Symmetry=e

 Vector   17  Occ=0.000000D+00  E= 2.291579D-01  Symmetry=e

 Vector   18  Occ=0.000000D+00  E= 3.420464D-01  Symmetry=e

 Vector   19  Occ=0.000000D+00  E= 3.420464D-01  Symmetry=e

 Vector   20  Occ=0.000000D+00  E= 3.601094D-01  Symmetry=a1

 Vector   21  Occ=0.000000D+00  E= 4.638206D-01  Symmetry=a1

 Vector   22  Occ=0.000000D+00  E= 4.852095D-01  Symmetry=a2

 Vector   23  Occ=0.000000D+00  E= 5.066034D-01  Symmetry=e

     Multipole analysis of the density
     ---------------------------------

     L   x y z        total         alpha         beta         nuclear
     -   - - -        -----         -----         ----         -------
     0   0 0 0     -0.000000     -5.000000     -5.000000     10.000000

     1   1 0 0     -0.000000     -0.000000     -0.000000     -0.000000
     1   0 1 0     -0.000000     -0.000000     -0.000000      0.000000
     1   0 0 1     -0.599514     -0.299757     -0.299757      0.000000

     2   2 0 0     -4.853088     -4.791721     -4.791721      4.730353
     2   1 1 0      0.000000     -0.000000     -0.000000      0.000000
     2   1 0 1      0.000000     -0.000000     -0.000000      0.000000
     2   0 2 0     -4.853088     -4.791721     -4.791721      4.730353
     2   0 1 1     -0.000000     -0.000000     -0.000000     -0.000000

 Total times  cpu:        1.6s     wall:        2.3s
