 Output coordinates in angstroms (scale by  1.889725989 to convert to a.u.)

  No.       Tag          Charge          X              Y              Z
 ---- ---------------- ---------- -------------- -------------- --------------
    1 P                   15.0000    -0.00000000    -0.00000000     0.00000053
    2 H                    1.0000    -0.00000000    -0.00000000     1.39292053
    3 H                    1.0000     0.92861239     0.92861239    -0.46430947
    4 H                    1.0000     0.33989572    -1.26850811    -0.46430947
    5 H                    1.0000    -1.26850811     0.33989572    -0.46430947

         Total DFT energy =     -343.507556301905

                       DFT Final Molecular Orbital Analysis
                       ------------------------------------

 Vector    1  Occ=2.000000D+00  E=-7.696689D+01  Symmetry=a1

 Vector    2  Occ=2.000000D+00  E=-6.764214D+00  Symmetry=a1

 Vector    3  Occ=2.000000D+00  E=-4.943496D+00  Symmetry=a1

 Vector    4  Occ=2.000000D+00  E=-4.943487D+00  Symmetry=e

 Vector    5  Occ=2.000000D+00  E=-4.943487D+00  Symmetry=e

 Vector    6  Occ=2.000000D+00  E=-9.655023D-01  Symmetry=a1

 Vector    7  Occ=2.000000D+00  E=-7.087478D-01  Symmetry=e

 Vector    8  Occ=2.000000D+00  E=-7.087478D-01  Symmetry=e

 Vector    9  Occ=2.000000D+00  E=-7.087366D-01  Symmetry=a1

 Vector   10  Occ=0.000000D+00  E=-3.194320D-01  Symmetry=a1

 Vector   11  Occ=0.000000D+00  E=-3.194305D-01  Symmetry=e

 Vector   12  Occ=0.000000D+00  E=-3.194305D-01  Symmetry=e

 Vector   13  Occ=0.000000D+00  E=-2.652694D-01  Symmetry=a1

 Vector   14  Occ=0.000000D+00  E=-2.012243D-01  Symmetry=e

 Vector   15  Occ=0.000000D+00  E=-2.012243D-01  Symmetry=e

 Vector   16  Occ=0.000000D+00  E=-1.328395D-01  Symmetry=e

 Vector   17  Occ=0.000000D+00  E=-1.328395D-01  Symmetry=e

 Vector   18  Occ=0.000000D+00  E=-1.328341D-01  Symmetry=a1

 Vector   19  Occ=0.000000D+00  E=-9.408456D-02  Symmetry=a1

 Vector   20  Occ=0.000000D+00  E=-4.460065D-02  Symmetry=e

 Vector   21  Occ=0.000000D+00  E=-4.460065D-02  Symmetry=e

 Vector   22  Occ=0.000000D+00  E=-4.460012D-02  Symmetry=a1

 Vector   23  Occ=0.000000D+00  E=-2.832307D-02  Symmetry=a1

 Vector   24  Occ=0.000000D+00  E= 3.427248D-02  Symmetry=e

 Vector   25  Occ=0.000000D+00  E= 3.427248D-02  Symmetry=e

 Vector   26  Occ=0.000000D+00  E= 3.428272D-02  Symmetry=a1

 Vector   27  Occ=0.000000D+00  E= 1.038957D-01  Symmetry=e

 Vector   28  Occ=0.000000D+00  E= 1.038957D-01  Symmetry=e

 Vector   29  Occ=0.000000D+00  E= 1.038963D-01  Symmetry=a1

 Vector   30  Occ=0.000000D+00  E= 1.118558D-01  Symmetry=e

 Vector   31  Occ=0.000000D+00  E= 1.118558D-01  Symmetry=e

 Vector   32  Occ=0.000000D+00  E= 1.118567D-01  Symmetry=a2

 Vector   33  Occ=0.000000D+00  E= 1.497109D-01  Symmetry=a1

 Vector   34  Occ=0.000000D+00  E= 1.952698D-01  Symmetry=a1

 Vector   35  Occ=0.000000D+00  E= 2.064790D-01  Symmetry=a1

 Vector   36  Occ=0.000000D+00  E= 2.064797D-01  Symmetry=e

 Vector   37  Occ=0.000000D+00  E= 2.064797D-01  Symmetry=e

 Vector   38  Occ=0.000000D+00  E= 3.124610D-01  Symmetry=e

 Vector   39  Occ=0.000000D+00  E= 3.124610D-01  Symmetry=e

 Vector   40  Occ=0.000000D+00  E= 3.124628D-01  Symmetry=a1

 Vector   41  Occ=0.000000D+00  E= 3.889232D-01  Symmetry=e

 Vector   42  Occ=0.000000D+00  E= 3.889232D-01  Symmetry=e

 Vector   43  Occ=0.000000D+00  E= 5.000353D-01  Symmetry=a1

     Multipole analysis of the density
     ---------------------------------

     L   x y z        total         alpha         beta         nuclear
     -   - - -        -----         -----         ----         -------
     0   0 0 0      1.000000     -9.000000     -9.000000     19.000000

     1   1 0 0     -0.000000     -0.000000     -0.000000      0.000000
     1   0 1 0      0.000000      0.000000      0.000000      0.000000
     1   0 0 1     -0.000068     -0.000034     -0.000034     -0.000000

     2   2 0 0     -8.205599     -8.721905     -8.721905      9.238211
     2   1 1 0      0.000000      0.000000      0.000000      0.000000
     2   1 0 1     -0.000000     -0.000000     -0.000000      0.000000
     2   0 2 0     -8.205599     -8.721905     -8.721905      9.238211
     2   0 1 1     -0.000000     -0.000000     -0.000000     -0.000000

 Total times  cpu:        2.4s     wall:        3.1s
