 Output coordinates in angstroms (scale by  1.889725989 to convert to a.u.)

  No.       Tag          Charge          X              Y              Z
 ---- ---------------- ---------- -------------- -------------- --------------
    1 P                   15.0000     0.00000000     0.00000000     0.12461833
    2 H                    1.0000    -0.84898519    -0.84898519    -0.62309167
    3 H                    1.0000    -0.31075015     1.15973534    -0.62309167
    4 H                    1.0000     1.15973534    -0.31075015    -0.62309167

         Total DFT energy =     -343.199319108728

                       DFT Final Molecular Orbital Analysis
                       ------------------------------------

 Vector    1  Occ=2.000000D+00  E=-7.665065D+01  Symmetry=a1

 Vector    2  Occ=2.000000D+00  E=-6.446183D+00  Symmetry=a1

 Vector    3  Occ=2.000000D+00  E=-4.626879D+00  Symmetry=e

 Vector    4  Occ=2.000000D+00  E=-4.626879D+00  Symmetry=e

 Vector    5  Occ=2.000000D+00  E=-4.623129D+00  Symmetry=a1

 Vector    6  Occ=2.000000D+00  E=-6.493952D-01  Symmetry=a1

 Vector    7  Occ=2.000000D+00  E=-4.056107D-01  Symmetry=e

 Vector    8  Occ=2.000000D+00  E=-4.056107D-01  Symmetry=e

 Vector    9  Occ=2.000000D+00  E=-3.021960D-01  Symmetry=a1

 Vector   10  Occ=0.000000D+00  E=-6.239247D-02  Symmetry=e

 Vector   11  Occ=0.000000D+00  E=-6.239247D-02  Symmetry=e

 Vector   12  Occ=0.000000D+00  E=-4.136241D-02  Symmetry=a1

 Vector   13  Occ=0.000000D+00  E= 2.980508D-02  Symmetry=e

 Vector   14  Occ=0.000000D+00  E= 2.980508D-02  Symmetry=e

 Vector   15  Occ=0.000000D+00  E= 3.824413D-02  Symmetry=a1

 Vector   16  Occ=0.000000D+00  E= 5.164864D-02  Symmetry=a1

 Vector   17  Occ=0.000000D+00  E= 5.692026D-02  Symmetry=e

 Vector   18  Occ=0.000000D+00  E= 5.692026D-02  Symmetry=e

 Vector   19  Occ=0.000000D+00  E= 8.382615D-02  Symmetry=a1

 Vector   20  Occ=0.000000D+00  E= 9.100479D-02  Symmetry=e

 Vector   21  Occ=0.000000D+00  E= 9.100479D-02  Symmetry=e

 Vector   22  Occ=0.000000D+00  E= 1.662272D-01  Symmetry=a1

 Vector   23  Occ=0.000000D+00  E= 2.148793D-01  Symmetry=e

 Vector   24  Occ=0.000000D+00  E= 2.148793D-01  Symmetry=e

 Vector   25  Occ=0.000000D+00  E= 2.270043D-01  Symmetry=a1

 Vector   26  Occ=0.000000D+00  E= 2.923989D-01  Symmetry=e

 Vector   27  Occ=0.000000D+00  E= 2.923989D-01  Symmetry=e

 Vector   28  Occ=0.000000D+00  E= 3.507983D-01  Symmetry=a2

 Vector   29  Occ=0.000000D+00  E= 3.629094D-01  Symmetry=a1

 Vector   30  Occ=0.000000D+00  E= 3.674137D-01  Symmetry=e

 Vector   31  Occ=0.000000D+00  E= 3.674137D-01  Symmetry=e

 Vector   32  Occ=0.000000D+00  E= 3.742475D-01  Symmetry=e

 Vector   33  Occ=0.000000D+00  E= 3.742475D-01  Symmetry=e

 Vector   34  Occ=0.000000D+00  E= 3.902438D-01  Symmetry=a1

 Vector   35  Occ=0.000000D+00  E= 5.528253D-01  Symmetry=a1

     Multipole analysis of the density
     ---------------------------------

     L   x y z        total         alpha         beta         nuclear
     -   - - -        -----         -----         ----         -------
     0   0 0 0     -0.000000     -9.000000     -9.000000     18.000000

     1   1 0 0     -0.000000      0.000000      0.000000     -0.000000
     1   0 1 0     -0.000000      0.000000      0.000000     -0.000000
     1   0 0 1     -0.267765     -0.133882     -0.133882      0.000000

     2   2 0 0    -11.350943     -9.536377     -9.536377      7.721811
     2   1 1 0      0.000000     -0.000000     -0.000000      0.000000
     2   1 0 1     -0.000000     -0.000000     -0.000000      0.000000
     2   0 2 0    -11.350943     -9.536377     -9.536377      7.721811
     2   0 1 1     -0.000000     -0.000000     -0.000000      0.000000

 Total times  cpu:        1.8s     wall:        2.9s
