 Output coordinates in angstroms (scale by  1.889725989 to convert to a.u.)

  No.       Tag          Charge          X              Y              Z
 ---- ---------------- ---------- -------------- -------------- --------------
    1 Si                  14.0000     0.00000000     0.00000000     0.00000000
    2 H                    1.0000     0.85613000    -0.85613000     0.85613000
    3 H                    1.0000    -0.85613000     0.85613000     0.85613000
    4 H                    1.0000     0.85613000     0.85613000    -0.85613000
    5 H                    1.0000    -0.85613000    -0.85613000    -0.85613000

         Total DFT energy =     -291.927455419703

                       DFT Final Molecular Orbital Analysis
                       ------------------------------------

 Vector    1  Occ=2.000000D+00  E=-6.573132D+01  Symmetry=a1

 Vector    2  Occ=2.000000D+00  E=-5.187683D+00  Symmetry=a1

 Vector    3  Occ=2.000000D+00  E=-3.565510D+00  Symmetry=t2

 Vector    4  Occ=2.000000D+00  E=-3.565510D+00  Symmetry=t2

 Vector    5  Occ=2.000000D+00  E=-3.565510D+00  Symmetry=t2

 Vector    6  Occ=2.000000D+00  E=-5.566891D-01  Symmetry=a1

 Vector    7  Occ=2.000000D+00  E=-3.693426D-01  Symmetry=t2

 Vector    8  Occ=2.000000D+00  E=-3.693426D-01  Symmetry=t2

 Vector    9  Occ=2.000000D+00  E=-3.693426D-01  Symmetry=t2

 Vector   10  Occ=0.000000D+00  E=-5.680992D-02  Symmetry=t2

 Vector   11  Occ=0.000000D+00  E=-5.680992D-02  Symmetry=t2

 Vector   12  Occ=0.000000D+00  E=-5.680992D-02  Symmetry=t2

 Vector   13  Occ=0.000000D+00  E=-3.203652D-02  Symmetry=a1

 Vector   14  Occ=0.000000D+00  E= 3.112800D-02  Symmetry=t2

 Vector   15  Occ=0.000000D+00  E= 3.112800D-02  Symmetry=t2

 Vector   16  Occ=0.000000D+00  E= 3.112800D-02  Symmetry=t2

 Vector   17  Occ=0.000000D+00  E= 3.169849D-02  Symmetry=e

 Vector   18  Occ=0.000000D+00  E= 3.169849D-02  Symmetry=e

 Vector   19  Occ=0.000000D+00  E= 8.176132D-02  Symmetry=a1

 Vector   20  Occ=0.000000D+00  E= 9.136390D-02  Symmetry=t2

 Vector   21  Occ=0.000000D+00  E= 9.136390D-02  Symmetry=t2

 Vector   22  Occ=0.000000D+00  E= 9.136390D-02  Symmetry=t2

 Vector   23  Occ=0.000000D+00  E= 1.102367D-01  Symmetry=a1

 Vector   24  Occ=0.000000D+00  E= 2.048738D-01  Symmetry=t2

 Vector   25  Occ=0.000000D+00  E= 2.048738D-01  Symmetry=t2

 Vector   26  Occ=0.000000D+00  E= 2.048738D-01  Symmetry=t2

 Vector   27  Occ=0.000000D+00  E= 2.559584D-01  Symmetry=t2

 Vector   28  Occ=0.000000D+00  E= 2.559584D-01  Symmetry=t2

 Vector   29  Occ=0.000000D+00  E= 2.559584D-01  Symmetry=t2

 Vector   30  Occ=0.000000D+00  E= 2.904145D-01  Symmetry=a1

 Vector   31  Occ=0.000000D+00  E= 2.965090D-01  Symmetry=t1

 Vector   32  Occ=0.000000D+00  E= 2.965090D-01  Symmetry=t1

 Vector   33  Occ=0.000000D+00  E= 2.965090D-01  Symmetry=t1

 Vector   34  Occ=0.000000D+00  E= 3.769639D-01  Symmetry=a1

 Vector   35  Occ=0.000000D+00  E= 3.983146D-01  Symmetry=t2

 Vector   36  Occ=0.000000D+00  E= 3.983146D-01  Symmetry=t2

 Vector   37  Occ=0.000000D+00  E= 3.983146D-01  Symmetry=t2

 Vector   38  Occ=0.000000D+00  E= 4.909720D-01  Symmetry=t2

 Vector   39  Occ=0.000000D+00  E= 4.909720D-01  Symmetry=t2

 Vector   40  Occ=0.000000D+00  E= 4.909720D-01  Symmetry=t2

 Vector   41  Occ=0.000000D+00  E= 5.560633D-01  Symmetry=e

     Multipole analysis of the density
     ---------------------------------

     L   x y z        total         alpha         beta         nuclear
     -   - - -        -----         -----         ----         -------
     0   0 0 0     -0.000000     -9.000000     -9.000000     18.000000

     1   1 0 0     -0.000000     -0.000000     -0.000000      0.000000
     1   0 1 0     -0.000000     -0.000000     -0.000000      0.000000
     1   0 0 1      0.000000      0.000000      0.000000      0.000000

     2   2 0 0    -12.820503    -11.645136    -11.645136     10.469769
     2   1 1 0      0.000000      0.000000      0.000000      0.000000
     2   1 0 1     -0.000000     -0.000000     -0.000000      0.000000
     2   0 2 0    -12.820503    -11.645136    -11.645136     10.469769
     2   0 1 1      0.000000      0.000000      0.000000      0.000000

 Total times  cpu:        1.7s     wall:        2.7s
