 Output coordinates in angstroms (scale by  1.889725989 to convert to a.u.)

  No.       Tag          Charge          X              Y              Z
 ---- ---------------- ---------- -------------- -------------- --------------
    1 Si                  14.0000    -0.00016878     0.17274319     0.00297868
    2 H                    1.0000     0.38227361    -1.65776771    -0.03773774
    3 H                    1.0000    -0.37864450    -1.65763525    -0.03964646
    4 H                    1.0000     0.02908427     0.36771692    -1.44663999
    5 H                    1.0000    -1.27612897     0.26303700     0.71578599
    6 H                    1.0000     1.24577855     0.26624442     0.76653671

         Total DFT energy =     -292.181391453717

                       DFT Final Molecular Orbital Analysis
                       ------------------------------------

 Vector    1  Occ=2.000000D+00  E=-6.603175D+01

 Vector    2  Occ=2.000000D+00  E=-5.483943D+00

 Vector    3  Occ=2.000000D+00  E=-3.868968D+00

 Vector    4  Occ=2.000000D+00  E=-3.858487D+00

 Vector    5  Occ=2.000000D+00  E=-3.858233D+00

 Vector    6  Occ=2.000000D+00  E=-8.645519D-01

 Vector    7  Occ=2.000000D+00  E=-7.320701D-01

 Vector    8  Occ=2.000000D+00  E=-6.365860D-01

 Vector    9  Occ=2.000000D+00  E=-6.326516D-01

 Vector   10  Occ=0.000000D+00  E=-3.928316D-01

 Vector   11  Occ=0.000000D+00  E=-3.148577D-01

 Vector   12  Occ=0.000000D+00  E=-2.801965D-01

 Vector   13  Occ=0.000000D+00  E=-2.736420D-01

 Vector   14  Occ=0.000000D+00  E=-2.449931D-01

 Vector   15  Occ=0.000000D+00  E=-2.090699D-01

 Vector   16  Occ=0.000000D+00  E=-1.295349D-01

 Vector   17  Occ=0.000000D+00  E=-1.222675D-01

 Vector   18  Occ=0.000000D+00  E=-1.218432D-01

 Vector   19  Occ=0.000000D+00  E=-1.192730D-01

 Vector   20  Occ=0.000000D+00  E=-5.670806D-02

 Vector   21  Occ=0.000000D+00  E=-4.967097D-02

 Vector   22  Occ=0.000000D+00  E=-4.258479D-02

 Vector   23  Occ=0.000000D+00  E=-3.989628D-02

 Vector   24  Occ=0.000000D+00  E=-3.412380D-02

 Vector   25  Occ=0.000000D+00  E=-2.862690D-02

 Vector   26  Occ=0.000000D+00  E= 1.153274D-02

 Vector   27  Occ=0.000000D+00  E= 1.725333D-02

 Vector   28  Occ=0.000000D+00  E= 3.760916D-02

 Vector   29  Occ=0.000000D+00  E= 3.918289D-02

 Vector   30  Occ=0.000000D+00  E= 5.445919D-02

 Vector   31  Occ=0.000000D+00  E= 8.235907D-02

 Vector   32  Occ=0.000000D+00  E= 9.861768D-02

 Vector   33  Occ=0.000000D+00  E= 1.037995D-01

 Vector   34  Occ=0.000000D+00  E= 1.191983D-01

 Vector   35  Occ=0.000000D+00  E= 1.383433D-01

 Vector   36  Occ=0.000000D+00  E= 1.553073D-01

 Vector   37  Occ=0.000000D+00  E= 1.836624D-01

 Vector   38  Occ=0.000000D+00  E= 1.915717D-01

 Vector   39  Occ=0.000000D+00  E= 1.954582D-01

 Vector   40  Occ=0.000000D+00  E= 2.484006D-01

 Vector   41  Occ=0.000000D+00  E= 2.620751D-01

 Vector   42  Occ=0.000000D+00  E= 2.688631D-01

 Vector   43  Occ=0.000000D+00  E= 3.237132D-01

 Vector   44  Occ=0.000000D+00  E= 3.269364D-01

 Vector   45  Occ=0.000000D+00  E= 3.767203D-01

 Vector   46  Occ=0.000000D+00  E= 3.769711D-01

 Vector   47  Occ=0.000000D+00  E= 4.085274D-01

 Vector   48  Occ=0.000000D+00  E= 4.152459D-01

 Vector   49  Occ=0.000000D+00  E= 4.373131D-01

 Vector   50  Occ=0.000000D+00  E= 4.444677D-01

 Vector   51  Occ=0.000000D+00  E= 4.612642D-01

 Vector   52  Occ=0.000000D+00  E= 4.653655D-01

 Vector   53  Occ=0.000000D+00  E= 4.962942D-01

 Vector   54  Occ=0.000000D+00  E= 5.063579D-01

     Multipole analysis of the density
     ---------------------------------

     L   x y z        total         alpha         beta         nuclear
     -   - - -        -----         -----         ----         -------
     0   0 0 0      1.000000     -9.000000     -9.000000     19.000000

     1   1 0 0      0.000021      0.000010      0.000010      0.000000
     1   0 1 0     -0.543024     -0.271512     -0.271512     -0.000000
     1   0 0 1     -0.004310     -0.002155     -0.002155      0.000000

     2   2 0 0     -9.498308    -10.946415    -10.946415     12.394523
     2   1 1 0     -0.005417     -0.003124     -0.003124      0.000831
     2   1 0 1      0.000392      0.000189      0.000189      0.000014
     2   0 2 0     -6.103947    -14.102635    -14.102635     22.101323
     2   0 1 1      0.101038      0.057851      0.057851     -0.014664

 Total times  cpu:        5.6s     wall:        6.5s
