 Output coordinates in angstroms (scale by  1.889725989 to convert to a.u.)

  No.       Tag          Charge          X              Y              Z
 ---- ---------------- ---------- -------------- -------------- --------------
    1 C                    6.0000     0.00000000     0.00000000     0.60808000
    2 C                    6.0000     0.00000000     0.00000000    -0.60808000
    3 H                    1.0000     0.00000000     0.00000000    -1.67399000
    4 H                    1.0000     0.00000000     0.00000000     1.67399000

         Total DFT energy =      -77.371349173182

                       DFT Final Molecular Orbital Analysis
                       ------------------------------------

 Vector    1  Occ=2.000000D+00  E=-9.999424D+00  Symmetry=a1g

 Vector   47  Occ=0.000000D+00  E= 1.248737D+00  Symmetry=a1g

 Vector   48  Occ=0.000000D+00  E= 1.294310D+00  Symmetry=a2u

 Vector   49  Occ=0.000000D+00  E= 1.373045D+00  Symmetry=eu

 Vector   50  Occ=0.000000D+00  E= 1.373045D+00  Symmetry=eu

 Vector   51  Occ=0.000000D+00  E= 1.439167D+00  Symmetry=b1g

 Vector   52  Occ=0.000000D+00  E= 1.439167D+00  Symmetry=b2g

 Vector   53  Occ=0.000000D+00  E= 1.682238D+00  Symmetry=eg

 Vector   54  Occ=0.000000D+00  E= 1.682238D+00  Symmetry=eg

 Vector   55  Occ=0.000000D+00  E= 1.736503D+00  Symmetry=b2u

 Vector   56  Occ=0.000000D+00  E= 1.736503D+00  Symmetry=b1u

 Vector   57  Occ=0.000000D+00  E= 2.022744D+00  Symmetry=a1g

 Vector   58  Occ=0.000000D+00  E= 2.026810D+00  Symmetry=eu

 Vector   59  Occ=0.000000D+00  E= 2.026810D+00  Symmetry=eu

 Vector   60  Occ=0.000000D+00  E= 2.152082D+00  Symmetry=a2u

 Vector   61  Occ=0.000000D+00  E= 2.232978D+00  Symmetry=a1g

 Vector   62  Occ=0.000000D+00  E= 2.489196D+00  Symmetry=b1g

 Vector   63  Occ=0.000000D+00  E= 2.489196D+00  Symmetry=b2g

 Vector   64  Occ=0.000000D+00  E= 2.535930D+00  Symmetry=eg

 Vector   65  Occ=0.000000D+00  E= 2.535930D+00  Symmetry=eg

 Vector   66  Occ=0.000000D+00  E= 2.571232D+00  Symmetry=a2u

 Vector   67  Occ=0.000000D+00  E= 2.648356D+00  Symmetry=eu

 Vector   68  Occ=0.000000D+00  E= 2.648356D+00  Symmetry=eu

 Vector   69  Occ=0.000000D+00  E= 2.650371D+00  Symmetry=eu

 Vector   70  Occ=0.000000D+00  E= 2.650371D+00  Symmetry=eu

 Vector   71  Occ=0.000000D+00  E= 2.908457D+00  Symmetry=eg

 Vector   72  Occ=0.000000D+00  E= 2.908457D+00  Symmetry=eg

 Vector   73  Occ=0.000000D+00  E= 2.936955D+00  Symmetry=a1g

 Vector   74  Occ=0.000000D+00  E= 2.977966D+00  Symmetry=b1u

 Vector   75  Occ=0.000000D+00  E= 2.977966D+00  Symmetry=b2u

 Vector   76  Occ=0.000000D+00  E= 3.053604D+00  Symmetry=eg

 Vector   77  Occ=0.000000D+00  E= 3.053604D+00  Symmetry=eg

 Vector   78  Occ=0.000000D+00  E= 3.066087D+00  Symmetry=a1g

 Vector   79  Occ=0.000000D+00  E= 3.205954D+00  Symmetry=a2u

 Vector   80  Occ=0.000000D+00  E= 3.379793D+00  Symmetry=a2u

 Vector   81  Occ=0.000000D+00  E= 3.468281D+00  Symmetry=b1g

 Vector   82  Occ=0.000000D+00  E= 3.468281D+00  Symmetry=b2g

 Vector   83  Occ=0.000000D+00  E= 3.483876D+00  Symmetry=eu

 Vector   84  Occ=0.000000D+00  E= 3.483876D+00  Symmetry=eu

 Vector   85  Occ=0.000000D+00  E= 3.781422D+00  Symmetry=a1g

 Vector   86  Occ=0.000000D+00  E= 4.215168D+00  Symmetry=b1u

 Vector   87  Occ=0.000000D+00  E= 4.215168D+00  Symmetry=b2u

 Vector   88  Occ=0.000000D+00  E= 4.235856D+00  Symmetry=a2u

 Vector   89  Occ=0.000000D+00  E= 4.313629D+00  Symmetry=eg

 Vector   90  Occ=0.000000D+00  E= 4.313629D+00  Symmetry=eg

 Vector   91  Occ=0.000000D+00  E= 4.688613D+00  Symmetry=a1g

 Vector   92  Occ=0.000000D+00  E= 4.857154D+00  Symmetry=a2u

 Vector   93  Occ=0.000000D+00  E= 4.947747D+00  Symmetry=eu

 Vector   94  Occ=0.000000D+00  E= 4.947747D+00  Symmetry=eu

 Vector   95  Occ=0.000000D+00  E= 5.230429D+00  Symmetry=a1g

 Vector   96  Occ=0.000000D+00  E= 6.440644D+00  Symmetry=eg

 Vector   97  Occ=0.000000D+00  E= 6.440644D+00  Symmetry=eg

 Vector   98  Occ=0.000000D+00  E= 6.450515D+00  Symmetry=a2u

 Vector   99  Occ=0.000000D+00  E= 6.939133D+00  Symmetry=b2g

 Vector  100  Occ=0.000000D+00  E= 6.939136D+00  Symmetry=b1g

 Vector  101  Occ=0.000000D+00  E= 7.066012D+00  Symmetry=b1u

 Vector  102  Occ=0.000000D+00  E= 7.066013D+00  Symmetry=b2u

 Vector  103  Occ=0.000000D+00  E= 7.256068D+00  Symmetry=eu

 Vector  104  Occ=0.000000D+00  E= 7.256068D+00  Symmetry=eu

 Vector  105  Occ=0.000000D+00  E= 7.334498D+00  Symmetry=eg

 Vector  106  Occ=0.000000D+00  E= 7.334498D+00  Symmetry=eg

 Vector  107  Occ=0.000000D+00  E= 7.672156D+00  Symmetry=a2u

 Vector  108  Occ=0.000000D+00  E= 7.718764D+00  Symmetry=a1g

 Vector  109  Occ=0.000000D+00  E= 8.201895D+00  Symmetry=eu

 Vector  110  Occ=0.000000D+00  E= 8.201895D+00  Symmetry=eu

 Vector  111  Occ=0.000000D+00  E= 8.604525D+00  Symmetry=a1g

 Vector  112  Occ=0.000000D+00  E= 8.680656D+00  Symmetry=eg

 Vector  113  Occ=0.000000D+00  E= 8.680656D+00  Symmetry=eg

 Vector  114  Occ=0.000000D+00  E= 8.804588D+00  Symmetry=eu

 Vector  115  Occ=0.000000D+00  E= 8.804588D+00  Symmetry=eu

 Vector  116  Occ=0.000000D+00  E= 9.133680D+00  Symmetry=eg

 Vector  117  Occ=0.000000D+00  E= 9.133680D+00  Symmetry=eg

 Vector  118  Occ=0.000000D+00  E= 9.198948D+00  Symmetry=a2u

 Vector  119  Occ=0.000000D+00  E= 9.393957D+00  Symmetry=a1g

 Vector  120  Occ=0.000000D+00  E= 1.021291D+01  Symmetry=a2u

 Vector  121  Occ=0.000000D+00  E= 1.030516D+01  Symmetry=a2u

 Vector  122  Occ=0.000000D+00  E= 1.034762D+01  Symmetry=a1g

 Vector  123  Occ=0.000000D+00  E= 1.223177D+01  Symmetry=a2u

 Vector  124  Occ=0.000000D+00  E= 1.294738D+01  Symmetry=a1g

 Vector  125  Occ=0.000000D+00  E= 2.897797D+01  Symmetry=a2u

 Vector  126  Occ=0.000000D+00  E= 2.931065D+01  Symmetry=a1g

     Multipole analysis of the density
     ---------------------------------

     L   x y z        total         alpha         beta         nuclear
     -   - - -        -----         -----         ----         -------
     0   0 0 0     -0.000000     -7.000000     -7.000000     14.000000

     1   1 0 0      0.000000      0.000000      0.000000      0.000000
     1   0 1 0      0.000000      0.000000      0.000000      0.000000
     1   0 0 1      0.000000      0.000000      0.000000      0.000000

     2   2 0 0    -10.210335     -5.105167     -5.105167      0.000000
     2   1 1 0      0.000000      0.000000      0.000000      0.000000
     2   1 0 1     -0.000000     -0.000000     -0.000000      0.000000
     2   0 2 0    -10.210335     -5.105167     -5.105167      0.000000
     2   0 1 1      0.000000      0.000000      0.000000      0.000000

 Total times  cpu:        2.2s     wall:        3.4s
