 Output coordinates in angstroms (scale by  1.889725989 to convert to a.u.)

  No.       Tag          Charge          X              Y              Z
 ---- ---------------- ---------- -------------- -------------- --------------
    1 C                    6.0000    -0.61597000     0.00000000    -0.07514333
    2 H                    1.0000     0.00000000     0.00000000     1.04194667
    3 C                    6.0000     0.61597000     0.00000000    -0.07514333
    4 H                    1.0000    -1.69720000     0.00000000    -0.07011333
    5 H                    1.0000     1.69720000     0.00000000    -0.07011333

         Total DFT energy =      -77.628657033116

                       DFT Final Molecular Orbital Analysis
                       ------------------------------------

 Vector    1  Occ=2.000000D+00  E=-1.035589D+01  Symmetry=a1

 Vector   66  Occ=0.000000D+00  E= 1.729883D+00  Symmetry=b2

 Vector   67  Occ=0.000000D+00  E= 1.866698D+00  Symmetry=b1

 Vector   68  Occ=0.000000D+00  E= 1.906440D+00  Symmetry=b1

 Vector   69  Occ=0.000000D+00  E= 1.952753D+00  Symmetry=a1

 Vector   70  Occ=0.000000D+00  E= 2.084627D+00  Symmetry=a1

 Vector   71  Occ=0.000000D+00  E= 2.167960D+00  Symmetry=a1

 Vector   72  Occ=0.000000D+00  E= 2.182710D+00  Symmetry=b2

 Vector   73  Occ=0.000000D+00  E= 2.205113D+00  Symmetry=b1

 Vector   74  Occ=0.000000D+00  E= 2.216240D+00  Symmetry=a2

 Vector   75  Occ=0.000000D+00  E= 2.296763D+00  Symmetry=a1

 Vector   76  Occ=0.000000D+00  E= 2.337157D+00  Symmetry=b2

 Vector   77  Occ=0.000000D+00  E= 2.342778D+00  Symmetry=b1

 Vector   78  Occ=0.000000D+00  E= 2.421471D+00  Symmetry=a2

 Vector   79  Occ=0.000000D+00  E= 2.538917D+00  Symmetry=b2

 Vector   80  Occ=0.000000D+00  E= 2.571195D+00  Symmetry=a1

 Vector   81  Occ=0.000000D+00  E= 2.601482D+00  Symmetry=a2

 Vector   82  Occ=0.000000D+00  E= 2.677185D+00  Symmetry=a1

 Vector   83  Occ=0.000000D+00  E= 2.682481D+00  Symmetry=b1

 Vector   84  Occ=0.000000D+00  E= 2.686403D+00  Symmetry=a2

 Vector   85  Occ=0.000000D+00  E= 2.704940D+00  Symmetry=b1

 Vector   86  Occ=0.000000D+00  E= 2.729125D+00  Symmetry=a1

 Vector   87  Occ=0.000000D+00  E= 2.890497D+00  Symmetry=b1

 Vector   88  Occ=0.000000D+00  E= 2.939224D+00  Symmetry=b1

 Vector   89  Occ=0.000000D+00  E= 2.998135D+00  Symmetry=a1

 Vector   90  Occ=0.000000D+00  E= 3.114862D+00  Symmetry=a1

 Vector   91  Occ=0.000000D+00  E= 3.138008D+00  Symmetry=b2

 Vector   92  Occ=0.000000D+00  E= 3.151786D+00  Symmetry=b2

 Vector   93  Occ=0.000000D+00  E= 3.221072D+00  Symmetry=b1

 Vector   94  Occ=0.000000D+00  E= 3.355509D+00  Symmetry=a1

 Vector   95  Occ=0.000000D+00  E= 3.489828D+00  Symmetry=a1

 Vector   96  Occ=0.000000D+00  E= 3.538365D+00  Symmetry=a2

 Vector   97  Occ=0.000000D+00  E= 3.841012D+00  Symmetry=a1

 Vector   98  Occ=0.000000D+00  E= 3.845540D+00  Symmetry=b1

 Vector   99  Occ=0.000000D+00  E= 3.923072D+00  Symmetry=a2

 Vector  100  Occ=0.000000D+00  E= 3.928017D+00  Symmetry=b1

 Vector  101  Occ=0.000000D+00  E= 3.950040D+00  Symmetry=b1

 Vector  102  Occ=0.000000D+00  E= 3.978370D+00  Symmetry=a2

 Vector  103  Occ=0.000000D+00  E= 4.001570D+00  Symmetry=b2

 Vector  104  Occ=0.000000D+00  E= 4.408955D+00  Symmetry=a1

 Vector  105  Occ=0.000000D+00  E= 4.463003D+00  Symmetry=a1

 Vector  106  Occ=0.000000D+00  E= 4.601969D+00  Symmetry=b1

 Vector  107  Occ=0.000000D+00  E= 4.630225D+00  Symmetry=b2

 Vector  108  Occ=0.000000D+00  E= 4.707219D+00  Symmetry=a1

 Vector  109  Occ=0.000000D+00  E= 4.867834D+00  Symmetry=a1

 Vector  110  Occ=0.000000D+00  E= 5.217730D+00  Symmetry=b1

 Vector  111  Occ=0.000000D+00  E= 5.555883D+00  Symmetry=a1

 Vector  112  Occ=0.000000D+00  E= 5.994421D+00  Symmetry=b1

 Vector  113  Occ=0.000000D+00  E= 6.040957D+00  Symmetry=a2

 Vector  114  Occ=0.000000D+00  E= 6.303595D+00  Symmetry=b1

 Vector  115  Occ=0.000000D+00  E= 6.685430D+00  Symmetry=b2

 Vector  116  Occ=0.000000D+00  E= 6.770488D+00  Symmetry=a1

 Vector  117  Occ=0.000000D+00  E= 6.794275D+00  Symmetry=a2

 Vector  118  Occ=0.000000D+00  E= 6.857464D+00  Symmetry=b1

 Vector  119  Occ=0.000000D+00  E= 6.964135D+00  Symmetry=b2

 Vector  120  Occ=0.000000D+00  E= 7.018650D+00  Symmetry=a2

 Vector  121  Occ=0.000000D+00  E= 7.389050D+00  Symmetry=b1

 Vector  122  Occ=0.000000D+00  E= 7.398233D+00  Symmetry=a1

 Vector  123  Occ=0.000000D+00  E= 7.570418D+00  Symmetry=b1

 Vector  124  Occ=0.000000D+00  E= 7.723526D+00  Symmetry=a1

 Vector  125  Occ=0.000000D+00  E= 7.895633D+00  Symmetry=b2

 Vector  126  Occ=0.000000D+00  E= 8.288657D+00  Symmetry=a1

 Vector  127  Occ=0.000000D+00  E= 8.331226D+00  Symmetry=a1

 Vector  128  Occ=0.000000D+00  E= 8.375459D+00  Symmetry=b2

 Vector  129  Occ=0.000000D+00  E= 8.393648D+00  Symmetry=a2

 Vector  130  Occ=0.000000D+00  E= 8.410960D+00  Symmetry=b1

 Vector  131  Occ=0.000000D+00  E= 8.538885D+00  Symmetry=b1

 Vector  132  Occ=0.000000D+00  E= 8.550313D+00  Symmetry=b2

 Vector  133  Occ=0.000000D+00  E= 8.757413D+00  Symmetry=a1

 Vector  134  Occ=0.000000D+00  E= 8.777683D+00  Symmetry=b1

 Vector  135  Occ=0.000000D+00  E= 8.814410D+00  Symmetry=a2

 Vector  136  Occ=0.000000D+00  E= 9.115446D+00  Symmetry=a1

 Vector  137  Occ=0.000000D+00  E= 9.273224D+00  Symmetry=b1

 Vector  138  Occ=0.000000D+00  E= 9.810212D+00  Symmetry=a1

 Vector  139  Occ=0.000000D+00  E= 9.868759D+00  Symmetry=b1

 Vector  140  Occ=0.000000D+00  E= 9.989615D+00  Symmetry=b1

 Vector  141  Occ=0.000000D+00  E= 1.020700D+01  Symmetry=a1

 Vector  142  Occ=0.000000D+00  E= 1.163178D+01  Symmetry=b1

 Vector  143  Occ=0.000000D+00  E= 1.212097D+01  Symmetry=a1

 Vector  144  Occ=0.000000D+00  E= 2.866519D+01  Symmetry=b1

 Vector  145  Occ=0.000000D+00  E= 2.898067D+01  Symmetry=a1

     Multipole analysis of the density
     ---------------------------------

     L   x y z        total         alpha         beta         nuclear
     -   - - -        -----         -----         ----         -------
     0   0 0 0      1.000000     -7.000000     -7.000000     15.000000

     1   1 0 0      0.000000      0.000000      0.000000      0.000000
     1   0 1 0      0.000000      0.000000      0.000000      0.000000
     1   0 0 1      0.373619      0.186810      0.186810     -0.000000

     2   2 0 0     -1.331564    -19.081768    -19.081768     36.831972
     2   1 1 0      0.000000      0.000000      0.000000      0.000000
     2   1 0 1      0.000000      0.000000      0.000000      0.000000
     2   0 2 0     -8.924924     -4.462462     -4.462462      0.000000
     2   0 1 1     -0.000000     -0.000000     -0.000000      0.000000

 Total times  cpu:        2.8s     wall:        4.9s
