 Output coordinates in angstroms (scale by  1.889725989 to convert to a.u.)

  No.       Tag          Charge          X              Y              Z
 ---- ---------------- ---------- -------------- -------------- --------------
    1 H                    1.0000     0.34745473     0.34745473     0.00000000
    2 H                    1.0000    -0.47463198     0.12717726     0.00000000
    3 H                    1.0000     0.12717726    -0.47463198     0.00000000

         Total DFT energy =       -1.352840280596

                       DFT Final Molecular Orbital Analysis
                       ------------------------------------

 Vector    1  Occ=2.000000D+00  E=-1.009802D+00  Symmetry=a1'

 Vector    2  Occ=0.000000D+00  E=-3.101478D-01  Symmetry=e'

 Vector    3  Occ=0.000000D+00  E=-3.101478D-01  Symmetry=e'

 Vector    4  Occ=0.000000D+00  E=-1.831042D-01  Symmetry=a1'

 Vector    5  Occ=0.000000D+00  E=-1.451392D-01  Symmetry=a2"

 Vector    6  Occ=0.000000D+00  E=-6.861860D-02  Symmetry=e'

 Vector    7  Occ=0.000000D+00  E=-6.861860D-02  Symmetry=e'

 Vector    8  Occ=0.000000D+00  E= 4.111864D-02  Symmetry=a1'

 Vector    9  Occ=0.000000D+00  E= 1.052525D-01  Symmetry=e'

 Vector   10  Occ=0.000000D+00  E= 1.052525D-01  Symmetry=e'

 Vector   11  Occ=0.000000D+00  E= 1.486381D-01  Symmetry=e"

 Vector   12  Occ=0.000000D+00  E= 1.486381D-01  Symmetry=e"

 Vector   13  Occ=0.000000D+00  E= 1.644103D-01  Symmetry=e'

 Vector   14  Occ=0.000000D+00  E= 1.644103D-01  Symmetry=e'

 Vector   15  Occ=0.000000D+00  E= 2.034284D-01  Symmetry=a1'

 Vector   16  Occ=0.000000D+00  E= 3.860184D-01  Symmetry=a2'

 Vector   17  Occ=0.000000D+00  E= 6.488514D-01  Symmetry=e'

 Vector   18  Occ=0.000000D+00  E= 6.488514D-01  Symmetry=e'

 Vector   19  Occ=0.000000D+00  E= 9.982438D-01  Symmetry=a1'

 Vector   20  Occ=0.000000D+00  E= 1.107580D+00  Symmetry=a2"

 Vector   21  Occ=0.000000D+00  E= 1.350841D+00  Symmetry=e'

 Vector   22  Occ=0.000000D+00  E= 1.350841D+00  Symmetry=e'

 Vector   23  Occ=0.000000D+00  E= 1.602851D+00  Symmetry=e"

 Vector   24  Occ=0.000000D+00  E= 1.602851D+00  Symmetry=e"

 Vector   25  Occ=0.000000D+00  E= 1.660128D+00  Symmetry=e'

 Vector   26  Occ=0.000000D+00  E= 1.660128D+00  Symmetry=e'

 Vector   27  Occ=0.000000D+00  E= 1.771321D+00  Symmetry=a1'

 Vector   28  Occ=0.000000D+00  E= 2.140524D+00  Symmetry=a2'

 Vector   29  Occ=0.000000D+00  E= 2.476599D+00  Symmetry=a1'

 Vector   30  Occ=0.000000D+00  E= 2.581767D+00  Symmetry=e'

 Vector   31  Occ=0.000000D+00  E= 2.581767D+00  Symmetry=e'

 Vector   32  Occ=0.000000D+00  E= 2.686480D+00  Symmetry=e"

 Vector   33  Occ=0.000000D+00  E= 2.686480D+00  Symmetry=e"

 Vector   34  Occ=0.000000D+00  E= 3.443025D+00  Symmetry=a2"

 Vector   35  Occ=0.000000D+00  E= 3.525235D+00  Symmetry=e'

 Vector   36  Occ=0.000000D+00  E= 3.525235D+00  Symmetry=e'

 Vector   37  Occ=0.000000D+00  E= 3.530014D+00  Symmetry=a1'

 Vector   38  Occ=0.000000D+00  E= 3.797838D+00  Symmetry=a1"

 Vector   39  Occ=0.000000D+00  E= 4.433520D+00  Symmetry=e"

 Vector   40  Occ=0.000000D+00  E= 4.433520D+00  Symmetry=e"

 Vector   41  Occ=0.000000D+00  E= 4.465591D+00  Symmetry=e'

 Vector   42  Occ=0.000000D+00  E= 4.465591D+00  Symmetry=e'

 Vector   43  Occ=0.000000D+00  E= 5.066824D+00  Symmetry=a1'

 Vector   44  Occ=0.000000D+00  E= 5.071433D+00  Symmetry=e'

 Vector   45  Occ=0.000000D+00  E= 5.071433D+00  Symmetry=e'

 Vector   46  Occ=0.000000D+00  E= 5.778907D+00  Symmetry=a2'

 Vector   47  Occ=0.000000D+00  E= 8.393118D+00  Symmetry=a2"

 Vector   48  Occ=0.000000D+00  E= 8.563009D+00  Symmetry=e"

 Vector   49  Occ=0.000000D+00  E= 8.563009D+00  Symmetry=e"

 Vector   50  Occ=0.000000D+00  E= 8.831006D+00  Symmetry=e'

 Vector   51  Occ=0.000000D+00  E= 8.831006D+00  Symmetry=e'

 Vector   52  Occ=0.000000D+00  E= 8.885832D+00  Symmetry=a2'

 Vector   53  Occ=0.000000D+00  E= 1.085041D+01  Symmetry=e'

 Vector   54  Occ=0.000000D+00  E= 1.085041D+01  Symmetry=e'

 Vector   55  Occ=0.000000D+00  E= 1.172276D+01  Symmetry=a1'

 Vector   56  Occ=0.000000D+00  E= 1.258206D+01  Symmetry=e'

 Vector   57  Occ=0.000000D+00  E= 1.258206D+01  Symmetry=e'

     Multipole analysis of the density
     ---------------------------------

     L   x y z        total         alpha         beta         nuclear
     -   - - -        -----         -----         ----         -------
     0   0 0 0      1.000000     -1.000000     -1.000000      3.000000

     1   1 0 0     -0.000000      0.000000      0.000000     -0.000000
     1   0 1 0     -0.000000      0.000000      0.000000     -0.000000
     1   0 0 1     -0.000000     -0.000000     -0.000000      0.000000

     2   2 0 0     -0.179441     -0.736395     -0.736395      1.293348
     2   1 1 0     -0.000000      0.000000      0.000000     -0.000000
     2   1 0 1      0.000000      0.000000      0.000000      0.000000
     2   0 2 0     -0.179441     -0.736395     -0.736395      1.293348
     2   0 1 1     -0.000000     -0.000000     -0.000000      0.000000

 Total times  cpu:        1.3s     wall:        2.2s
