 Output coordinates in angstroms (scale by  1.889725989 to convert to a.u.)

  No.       Tag          Charge          X              Y              Z
 ---- ---------------- ---------- -------------- -------------- --------------
    1 H                    1.0000     0.00000000     0.00000000     0.36858000
    2 H                    1.0000     0.00000000     0.00000000    -0.36858000

         Total DFT energy =       -1.179860372192

                       DFT Final Molecular Orbital Analysis
                       ------------------------------------

 Vector    1  Occ=2.000000D+00  E=-3.947961D-01  Symmetry=a1g

 Vector    2  Occ=0.000000D+00  E= 2.014086D-02  Symmetry=a2u

 Vector    3  Occ=0.000000D+00  E= 3.086868D-02  Symmetry=a1g

 Vector    4  Occ=0.000000D+00  E= 1.370517D-01  Symmetry=a2u

 Vector    5  Occ=0.000000D+00  E= 2.220047D-01  Symmetry=eu

 Vector    6  Occ=0.000000D+00  E= 2.220047D-01  Symmetry=eu

 Vector    7  Occ=0.000000D+00  E= 3.181411D-01  Symmetry=a1g

 Vector    8  Occ=0.000000D+00  E= 4.327653D-01  Symmetry=a2u

 Vector    9  Occ=0.000000D+00  E= 4.633060D-01  Symmetry=eg

 Vector   10  Occ=0.000000D+00  E= 4.633060D-01  Symmetry=eg

 Vector   11  Occ=0.000000D+00  E= 4.731640D-01  Symmetry=a1g

 Vector   12  Occ=0.000000D+00  E= 9.494847D-01  Symmetry=a2u

 Vector   13  Occ=0.000000D+00  E= 1.483821D+00  Symmetry=a1g

 Vector   14  Occ=0.000000D+00  E= 1.550685D+00  Symmetry=eu

 Vector   15  Occ=0.000000D+00  E= 1.550685D+00  Symmetry=eu

 Vector   16  Occ=0.000000D+00  E= 1.953601D+00  Symmetry=a2u

 Vector   17  Occ=0.000000D+00  E= 2.062717D+00  Symmetry=a1g

 Vector   18  Occ=0.000000D+00  E= 2.110482D+00  Symmetry=eg

 Vector   19  Occ=0.000000D+00  E= 2.110482D+00  Symmetry=eg

 Vector   20  Occ=0.000000D+00  E= 2.737552D+00  Symmetry=b1g

 Vector   21  Occ=0.000000D+00  E= 2.737553D+00  Symmetry=b2g

 Vector   22  Occ=0.000000D+00  E= 3.037079D+00  Symmetry=a2u

 Vector   23  Occ=0.000000D+00  E= 3.561033D+00  Symmetry=eu

 Vector   24  Occ=0.000000D+00  E= 3.561033D+00  Symmetry=eu

 Vector   25  Occ=0.000000D+00  E= 3.613537D+00  Symmetry=b1u

 Vector   26  Occ=0.000000D+00  E= 3.613538D+00  Symmetry=b2u

 Vector   27  Occ=0.000000D+00  E= 4.149438D+00  Symmetry=a1g

 Vector   28  Occ=0.000000D+00  E= 4.815307D+00  Symmetry=eg

 Vector   29  Occ=0.000000D+00  E= 4.815307D+00  Symmetry=eg

 Vector   30  Occ=0.000000D+00  E= 4.937396D+00  Symmetry=a2u

 Vector   31  Occ=0.000000D+00  E= 5.606892D+00  Symmetry=a1g

 Vector   32  Occ=0.000000D+00  E= 8.696316D+00  Symmetry=eu

 Vector   33  Occ=0.000000D+00  E= 8.696316D+00  Symmetry=eu

 Vector   34  Occ=0.000000D+00  E= 8.931330D+00  Symmetry=a1g

 Vector   35  Occ=0.000000D+00  E= 8.986170D+00  Symmetry=eg

 Vector   36  Occ=0.000000D+00  E= 8.986170D+00  Symmetry=eg

 Vector   37  Occ=0.000000D+00  E= 1.164452D+01  Symmetry=a2u

 Vector   38  Occ=0.000000D+00  E= 1.523678D+01  Symmetry=a2u

     Multipole analysis of the density
     ---------------------------------

     L   x y z        total         alpha         beta         nuclear
     -   - - -        -----         -----         ----         -------
     0   0 0 0     -0.000000     -1.000000     -1.000000      2.000000

     1   1 0 0      0.000000      0.000000      0.000000      0.000000
     1   0 1 0      0.000000      0.000000      0.000000      0.000000
     1   0 0 1      0.000000      0.000000      0.000000      0.000000

     2   2 0 0     -1.526997     -0.763498     -0.763498      0.000000
     2   1 1 0      0.000000      0.000000      0.000000      0.000000
     2   1 0 1      0.000000      0.000000      0.000000      0.000000
     2   0 2 0     -1.526997     -0.763498     -0.763498      0.000000
     2   0 1 1      0.000000      0.000000      0.000000      0.000000

 Total times  cpu:        0.9s     wall:        2.1s
