 Output coordinates in angstroms (scale by  1.889725989 to convert to a.u.)

  No.       Tag          Charge          X              Y              Z
 ---- ---------------- ---------- -------------- -------------- --------------
    1 O                    8.0000     0.00000000     0.00000000    -0.08099492
    2 H                    1.0000     0.66840471     0.66840471     0.21598645
    3 H                    1.0000    -0.91305781     0.24465310     0.21598645
    4 H                    1.0000     0.24465310    -0.91305781     0.21598645

         Total DFT energy =      -76.741363007158

                       DFT Final Molecular Orbital Analysis
                       ------------------------------------

 Vector    1  Occ=2.000000D+00  E=-1.931723D+01  Symmetry=a1

 Vector   23  Occ=0.000000D+00  E= 3.044478D-01  Symmetry=e

 Vector   24  Occ=0.000000D+00  E= 3.044478D-01  Symmetry=e

 Vector   25  Occ=0.000000D+00  E= 3.793624D-01  Symmetry=a1

 Vector   26  Occ=0.000000D+00  E= 4.546737D-01  Symmetry=e

 Vector   27  Occ=0.000000D+00  E= 4.546737D-01  Symmetry=e

 Vector   28  Occ=0.000000D+00  E= 5.790247D-01  Symmetry=a1

 Vector   29  Occ=0.000000D+00  E= 6.550605D-01  Symmetry=e

 Vector   30  Occ=0.000000D+00  E= 6.550605D-01  Symmetry=e

 Vector   31  Occ=0.000000D+00  E= 6.986945D-01  Symmetry=e

 Vector   32  Occ=0.000000D+00  E= 6.986945D-01  Symmetry=e

 Vector   33  Occ=0.000000D+00  E= 7.789054D-01  Symmetry=a1

 Vector   34  Occ=0.000000D+00  E= 1.030991D+00  Symmetry=a1

 Vector   35  Occ=0.000000D+00  E= 1.149532D+00  Symmetry=e

 Vector   36  Occ=0.000000D+00  E= 1.149532D+00  Symmetry=e

 Vector   37  Occ=0.000000D+00  E= 1.457847D+00  Symmetry=a2

 Vector   38  Occ=0.000000D+00  E= 1.504449D+00  Symmetry=e

 Vector   39  Occ=0.000000D+00  E= 1.504449D+00  Symmetry=e

 Vector   40  Occ=0.000000D+00  E= 1.509158D+00  Symmetry=a1

 Vector   41  Occ=0.000000D+00  E= 1.590617D+00  Symmetry=e

 Vector   42  Occ=0.000000D+00  E= 1.590617D+00  Symmetry=e

 Vector   43  Occ=0.000000D+00  E= 1.644323D+00  Symmetry=a1

 Vector   44  Occ=0.000000D+00  E= 1.842516D+00  Symmetry=e

 Vector   45  Occ=0.000000D+00  E= 1.842516D+00  Symmetry=e

 Vector   46  Occ=0.000000D+00  E= 2.296943D+00  Symmetry=a1

 Vector   47  Occ=0.000000D+00  E= 2.388015D+00  Symmetry=e

 Vector   48  Occ=0.000000D+00  E= 2.388015D+00  Symmetry=e

 Vector   49  Occ=0.000000D+00  E= 2.616989D+00  Symmetry=e

 Vector   50  Occ=0.000000D+00  E= 2.616989D+00  Symmetry=e

 Vector   51  Occ=0.000000D+00  E= 2.690252D+00  Symmetry=a1

 Vector   52  Occ=0.000000D+00  E= 2.728987D+00  Symmetry=a1

 Vector   53  Occ=0.000000D+00  E= 2.765045D+00  Symmetry=a2

 Vector   54  Occ=0.000000D+00  E= 2.857309D+00  Symmetry=e

 Vector   55  Occ=0.000000D+00  E= 2.857309D+00  Symmetry=e

 Vector   56  Occ=0.000000D+00  E= 2.914462D+00  Symmetry=e

 Vector   57  Occ=0.000000D+00  E= 2.914462D+00  Symmetry=e

 Vector   58  Occ=0.000000D+00  E= 3.036372D+00  Symmetry=a1

 Vector   59  Occ=0.000000D+00  E= 3.394152D+00  Symmetry=e

 Vector   60  Occ=0.000000D+00  E= 3.394152D+00  Symmetry=e

 Vector   61  Occ=0.000000D+00  E= 3.448467D+00  Symmetry=a2

 Vector   62  Occ=0.000000D+00  E= 3.609121D+00  Symmetry=e

 Vector   63  Occ=0.000000D+00  E= 3.609121D+00  Symmetry=e

 Vector   64  Occ=0.000000D+00  E= 3.753115D+00  Symmetry=a1

 Vector   65  Occ=0.000000D+00  E= 3.900636D+00  Symmetry=a1

 Vector   66  Occ=0.000000D+00  E= 3.944151D+00  Symmetry=e

 Vector   67  Occ=0.000000D+00  E= 3.944151D+00  Symmetry=e

 Vector   68  Occ=0.000000D+00  E= 4.144292D+00  Symmetry=e

 Vector   69  Occ=0.000000D+00  E= 4.144292D+00  Symmetry=e

 Vector   70  Occ=0.000000D+00  E= 4.555037D+00  Symmetry=a1

 Vector   71  Occ=0.000000D+00  E= 4.805789D+00  Symmetry=e

 Vector   72  Occ=0.000000D+00  E= 4.805789D+00  Symmetry=e

 Vector   73  Occ=0.000000D+00  E= 5.433827D+00  Symmetry=a1

 Vector   74  Occ=0.000000D+00  E= 5.528185D+00  Symmetry=e

 Vector   75  Occ=0.000000D+00  E= 5.528185D+00  Symmetry=e

 Vector   76  Occ=0.000000D+00  E= 5.778025D+00  Symmetry=a1

 Vector   77  Occ=0.000000D+00  E= 6.042733D+00  Symmetry=e

 Vector   78  Occ=0.000000D+00  E= 6.042733D+00  Symmetry=e

 Vector   79  Occ=0.000000D+00  E= 6.371891D+00  Symmetry=a2

 Vector   80  Occ=0.000000D+00  E= 6.391180D+00  Symmetry=a1

 Vector   81  Occ=0.000000D+00  E= 6.648646D+00  Symmetry=e

 Vector   82  Occ=0.000000D+00  E= 6.648646D+00  Symmetry=e

 Vector   83  Occ=0.000000D+00  E= 7.220378D+00  Symmetry=a1

 Vector   84  Occ=0.000000D+00  E= 8.152421D+00  Symmetry=e

 Vector   85  Occ=0.000000D+00  E= 8.152421D+00  Symmetry=e

 Vector   86  Occ=0.000000D+00  E= 8.199635D+00  Symmetry=a2

 Vector   87  Occ=0.000000D+00  E= 8.241297D+00  Symmetry=a1

 Vector   88  Occ=0.000000D+00  E= 8.478948D+00  Symmetry=e

 Vector   89  Occ=0.000000D+00  E= 8.478948D+00  Symmetry=e

 Vector   90  Occ=0.000000D+00  E= 9.295446D+00  Symmetry=e

 Vector   91  Occ=0.000000D+00  E= 9.295446D+00  Symmetry=e

 Vector   92  Occ=0.000000D+00  E= 9.703799D+00  Symmetry=a1

 Vector   93  Occ=0.000000D+00  E= 1.436743D+01  Symmetry=e

 Vector   94  Occ=0.000000D+00  E= 1.436743D+01  Symmetry=e

 Vector   95  Occ=0.000000D+00  E= 1.486361D+01  Symmetry=a1

 Vector   96  Occ=0.000000D+00  E= 1.522082D+01  Symmetry=e

 Vector   97  Occ=0.000000D+00  E= 1.522082D+01  Symmetry=e

 Vector   98  Occ=0.000000D+00  E= 1.608937D+01  Symmetry=a1

 Vector   99  Occ=0.000000D+00  E= 1.659598D+01  Symmetry=e

 Vector  100  Occ=0.000000D+00  E= 1.659598D+01  Symmetry=e

 Vector  101  Occ=0.000000D+00  E= 1.933960D+01  Symmetry=a1

 Vector  102  Occ=0.000000D+00  E= 6.072978D+01  Symmetry=a1

     Multipole analysis of the density
     ---------------------------------

     L   x y z        total         alpha         beta         nuclear
     -   - - -        -----         -----         ----         -------
     0   0 0 0      1.000000     -5.000000     -5.000000     11.000000

     1   1 0 0      0.000000      0.000000      0.000000      0.000000
     1   0 1 0     -0.000000     -0.000000     -0.000000      0.000000
     1   0 0 1      0.591050      0.295525      0.295525     -0.000000

     2   2 0 0     -1.856822     -3.321550     -3.321550      4.786278
     2   1 1 0      0.000000     -0.000000     -0.000000      0.000000
     2   1 0 1      0.000000     -0.000000     -0.000000      0.000000
     2   0 2 0     -1.856822     -3.321550     -3.321550      4.786278
     2   0 1 1      0.000000     -0.000000     -0.000000      0.000000

 Total times  cpu:        1.8s     wall:        2.5s
