 Output coordinates in angstroms (scale by  1.889725989 to convert to a.u.)

  No.       Tag          Charge          X              Y              Z
 ---- ---------------- ---------- -------------- -------------- --------------
    1 O                    8.0000     0.00000000     0.00000000     0.11926200
    2 H                    1.0000    -0.76324000     0.00000000    -0.47704800
    3 H                    1.0000     0.76324000     0.00000000    -0.47704800

         Total DFT energy =      -76.466144782793

                       DFT Final Molecular Orbital Analysis
                       ------------------------------------

 Vector    1  Occ=2.000000D+00  E=-1.888936D+01  Symmetry=a1

 Vector    4  Occ=2.000000D+00  E=-3.478556D-01  Symmetry=a1

 Vector    5  Occ=2.000000D+00  E=-2.686420D-01  Symmetry=b2

 Vector    6  Occ=0.000000D+00  E=-2.704147D-02  Symmetry=a1

 Vector    7  Occ=0.000000D+00  E= 2.761998D-02  Symmetry=b1

 Vector    8  Occ=0.000000D+00  E= 1.271674D-01  Symmetry=a1

 Vector    9  Occ=0.000000D+00  E= 1.383904D-01  Symmetry=b1

 Vector   10  Occ=0.000000D+00  E= 1.450276D-01  Symmetry=a1

 Vector   11  Occ=0.000000D+00  E= 1.452958D-01  Symmetry=b2

 Vector   12  Occ=0.000000D+00  E= 1.983434D-01  Symmetry=a1

 Vector   13  Occ=0.000000D+00  E= 2.115972D-01  Symmetry=b1

 Vector   14  Occ=0.000000D+00  E= 3.168333D-01  Symmetry=a1

 Vector   15  Occ=0.000000D+00  E= 3.449230D-01  Symmetry=a2

 Vector   16  Occ=0.000000D+00  E= 3.832717D-01  Symmetry=b2

 Vector   17  Occ=0.000000D+00  E= 4.102155D-01  Symmetry=b1

 Vector   18  Occ=0.000000D+00  E= 4.693099D-01  Symmetry=a1

 Vector   19  Occ=0.000000D+00  E= 5.447240D-01  Symmetry=b1

 Vector   20  Occ=0.000000D+00  E= 6.315150D-01  Symmetry=a1

 Vector   21  Occ=0.000000D+00  E= 7.077899D-01  Symmetry=b1

 Vector   22  Occ=0.000000D+00  E= 8.628824D-01  Symmetry=a1

 Vector   23  Occ=0.000000D+00  E= 9.041889D-01  Symmetry=b2

 Vector   24  Occ=0.000000D+00  E= 9.132482D-01  Symmetry=a1

 Vector   25  Occ=0.000000D+00  E= 9.611768D-01  Symmetry=a2

 Vector   26  Occ=0.000000D+00  E= 9.953134D-01  Symmetry=b1

 Vector   27  Occ=0.000000D+00  E= 1.006480D+00  Symmetry=a1

 Vector   28  Occ=0.000000D+00  E= 1.048422D+00  Symmetry=b2

 Vector   29  Occ=0.000000D+00  E= 1.367451D+00  Symmetry=a1

 Vector   30  Occ=0.000000D+00  E= 1.455976D+00  Symmetry=b1

 Vector   31  Occ=0.000000D+00  E= 1.766755D+00  Symmetry=a2

 Vector   32  Occ=0.000000D+00  E= 1.831857D+00  Symmetry=a1

 Vector   33  Occ=0.000000D+00  E= 1.864010D+00  Symmetry=b1

 Vector   34  Occ=0.000000D+00  E= 1.866691D+00  Symmetry=b2

 Vector   35  Occ=0.000000D+00  E= 1.916894D+00  Symmetry=b1

 Vector   36  Occ=0.000000D+00  E= 2.067382D+00  Symmetry=a1

 Vector   37  Occ=0.000000D+00  E= 2.564922D+00  Symmetry=a1

 Vector   38  Occ=0.000000D+00  E= 2.728190D+00  Symmetry=b1

 Vector   39  Occ=0.000000D+00  E= 2.801322D+00  Symmetry=a1

 Vector   40  Occ=0.000000D+00  E= 2.906831D+00  Symmetry=b2

 Vector   41  Occ=0.000000D+00  E= 2.974886D+00  Symmetry=a1

 Vector   42  Occ=0.000000D+00  E= 3.045580D+00  Symmetry=a2

 Vector   43  Occ=0.000000D+00  E= 3.138215D+00  Symmetry=a1

 Vector   44  Occ=0.000000D+00  E= 3.152196D+00  Symmetry=b2

 Vector   45  Occ=0.000000D+00  E= 3.172756D+00  Symmetry=b1

 Vector   46  Occ=0.000000D+00  E= 3.272758D+00  Symmetry=a2

 Vector   47  Occ=0.000000D+00  E= 3.569798D+00  Symmetry=a1

 Vector   48  Occ=0.000000D+00  E= 3.615318D+00  Symmetry=b1

 Vector   49  Occ=0.000000D+00  E= 3.916189D+00  Symmetry=b1

 Vector   50  Occ=0.000000D+00  E= 3.989540D+00  Symmetry=b2

 Vector   51  Occ=0.000000D+00  E= 4.135363D+00  Symmetry=a1

 Vector   52  Occ=0.000000D+00  E= 4.243518D+00  Symmetry=a2

 Vector   53  Occ=0.000000D+00  E= 4.264680D+00  Symmetry=a1

 Vector   54  Occ=0.000000D+00  E= 4.310611D+00  Symmetry=b1

 Vector   55  Occ=0.000000D+00  E= 4.761585D+00  Symmetry=b1

 Vector   56  Occ=0.000000D+00  E= 4.811747D+00  Symmetry=b2

 Vector   57  Occ=0.000000D+00  E= 4.873915D+00  Symmetry=a1

 Vector   58  Occ=0.000000D+00  E= 5.511645D+00  Symmetry=b2

 Vector   59  Occ=0.000000D+00  E= 5.758717D+00  Symmetry=a1

 Vector   60  Occ=0.000000D+00  E= 5.795290D+00  Symmetry=b1

 Vector   61  Occ=0.000000D+00  E= 6.170737D+00  Symmetry=a1

 Vector   62  Occ=0.000000D+00  E= 6.237259D+00  Symmetry=b2

 Vector   63  Occ=0.000000D+00  E= 6.325572D+00  Symmetry=a2

 Vector   64  Occ=0.000000D+00  E= 6.549093D+00  Symmetry=a1

 Vector   65  Occ=0.000000D+00  E= 6.579371D+00  Symmetry=b1

 Vector   66  Occ=0.000000D+00  E= 6.883366D+00  Symmetry=b1

 Vector   67  Occ=0.000000D+00  E= 7.426767D+00  Symmetry=a1

 Vector   68  Occ=0.000000D+00  E= 8.432655D+00  Symmetry=a2

 Vector   69  Occ=0.000000D+00  E= 8.468425D+00  Symmetry=b2

 Vector   70  Occ=0.000000D+00  E= 8.567531D+00  Symmetry=a1

 Vector   71  Occ=0.000000D+00  E= 8.662730D+00  Symmetry=b1

 Vector   72  Occ=0.000000D+00  E= 9.704734D+00  Symmetry=b1

 Vector   73  Occ=0.000000D+00  E= 9.901347D+00  Symmetry=a1

 Vector   74  Occ=0.000000D+00  E= 1.447974D+01  Symmetry=b2

 Vector   75  Occ=0.000000D+00  E= 1.462414D+01  Symmetry=a2

 Vector   76  Occ=0.000000D+00  E= 1.465962D+01  Symmetry=a1

 Vector   77  Occ=0.000000D+00  E= 1.532414D+01  Symmetry=a1

 Vector   78  Occ=0.000000D+00  E= 1.571868D+01  Symmetry=b1

 Vector   79  Occ=0.000000D+00  E= 1.638735D+01  Symmetry=b2

 Vector   80  Occ=0.000000D+00  E= 1.660136D+01  Symmetry=a1

 Vector   81  Occ=0.000000D+00  E= 1.704367D+01  Symmetry=b1

 Vector   82  Occ=0.000000D+00  E= 1.950891D+01  Symmetry=a1

 Vector   83  Occ=0.000000D+00  E= 6.115503D+01  Symmetry=a1

     Multipole analysis of the density
     ---------------------------------

     L   x y z        total         alpha         beta         nuclear
     -   - - -        -----         -----         ----         -------
     0   0 0 0     -0.000000     -5.000000     -5.000000     10.000000

     1   1 0 0      0.000000      0.000000      0.000000      0.000000
     1   0 1 0     -0.000000     -0.000000     -0.000000      0.000000
     1   0 0 1     -0.729623     -0.364811     -0.364811      0.000000

     2   2 0 0     -3.328332     -3.744437     -3.744437      4.160542
     2   1 1 0     -0.000000     -0.000000     -0.000000      0.000000
     2   1 0 1     -0.000000     -0.000000     -0.000000      0.000000
     2   0 2 0     -5.788616     -2.894308     -2.894308      0.000000
     2   0 1 1      0.000000      0.000000      0.000000      0.000000

 Total times  cpu:        2.2s     wall:        3.4s
