 Output coordinates in angstroms (scale by  1.889725989 to convert to a.u.)

  No.       Tag          Charge          X              Y              Z
 ---- ---------------- ---------- -------------- -------------- --------------
    1 S                   16.0000     0.00000000     0.00000000     0.10906895
    2 H                    1.0000     0.81766473     0.81766473    -0.58170105
    3 H                    1.0000     0.29928606    -1.11695079    -0.58170105
    4 H                    1.0000    -1.11695079     0.29928606    -0.58170105

         Total DFT energy =     -399.716014849818

                       DFT Final Molecular Orbital Analysis
                       ------------------------------------

 Vector    1  Occ=2.000000D+00  E=-8.871415D+01  Symmetry=a1

 Vector   31  Occ=0.000000D+00  E= 2.071761D-01  Symmetry=a1

 Vector   32  Occ=0.000000D+00  E= 2.196321D-01  Symmetry=e

 Vector   33  Occ=0.000000D+00  E= 2.196321D-01  Symmetry=e

 Vector   34  Occ=0.000000D+00  E= 2.591421D-01  Symmetry=a1

 Vector   35  Occ=0.000000D+00  E= 3.659051D-01  Symmetry=a1

 Vector   36  Occ=0.000000D+00  E= 3.809787D-01  Symmetry=e

 Vector   37  Occ=0.000000D+00  E= 3.809787D-01  Symmetry=e

 Vector   38  Occ=0.000000D+00  E= 5.382520D-01  Symmetry=a1

 Vector   39  Occ=0.000000D+00  E= 5.716685D-01  Symmetry=e

 Vector   40  Occ=0.000000D+00  E= 5.716685D-01  Symmetry=e

 Vector   41  Occ=0.000000D+00  E= 6.424526D-01  Symmetry=e

 Vector   42  Occ=0.000000D+00  E= 6.424526D-01  Symmetry=e

 Vector   43  Occ=0.000000D+00  E= 6.854369D-01  Symmetry=a1

 Vector   44  Occ=0.000000D+00  E= 7.246776D-01  Symmetry=e

 Vector   45  Occ=0.000000D+00  E= 7.246776D-01  Symmetry=e

 Vector   46  Occ=0.000000D+00  E= 9.442115D-01  Symmetry=a1

 Vector   47  Occ=0.000000D+00  E= 9.743483D-01  Symmetry=e

 Vector   48  Occ=0.000000D+00  E= 9.743483D-01  Symmetry=e

 Vector   49  Occ=0.000000D+00  E= 1.087722D+00  Symmetry=a1

 Vector   50  Occ=0.000000D+00  E= 1.194275D+00  Symmetry=a2

 Vector   51  Occ=0.000000D+00  E= 1.241273D+00  Symmetry=a1

 Vector   52  Occ=0.000000D+00  E= 1.242540D+00  Symmetry=e

 Vector   53  Occ=0.000000D+00  E= 1.242540D+00  Symmetry=e

 Vector   54  Occ=0.000000D+00  E= 1.469693D+00  Symmetry=e

 Vector   55  Occ=0.000000D+00  E= 1.469693D+00  Symmetry=e

 Vector   56  Occ=0.000000D+00  E= 1.558062D+00  Symmetry=a1

 Vector   57  Occ=0.000000D+00  E= 1.647630D+00  Symmetry=a1

 Vector   58  Occ=0.000000D+00  E= 1.715922D+00  Symmetry=e

 Vector   59  Occ=0.000000D+00  E= 1.715922D+00  Symmetry=e

 Vector   60  Occ=0.000000D+00  E= 1.735246D+00  Symmetry=a2

 Vector   61  Occ=0.000000D+00  E= 1.790089D+00  Symmetry=e

 Vector   62  Occ=0.000000D+00  E= 1.790089D+00  Symmetry=e

 Vector   63  Occ=0.000000D+00  E= 2.016681D+00  Symmetry=a1

 Vector   64  Occ=0.000000D+00  E= 2.024157D+00  Symmetry=e

 Vector   65  Occ=0.000000D+00  E= 2.024157D+00  Symmetry=e

 Vector   66  Occ=0.000000D+00  E= 2.218467D+00  Symmetry=e

 Vector   67  Occ=0.000000D+00  E= 2.218467D+00  Symmetry=e

 Vector   68  Occ=0.000000D+00  E= 2.615172D+00  Symmetry=a1

 Vector   69  Occ=0.000000D+00  E= 2.720709D+00  Symmetry=e

 Vector   70  Occ=0.000000D+00  E= 2.720709D+00  Symmetry=e

 Vector   71  Occ=0.000000D+00  E= 2.851750D+00  Symmetry=a1

 Vector   72  Occ=0.000000D+00  E= 2.897383D+00  Symmetry=e

 Vector   73  Occ=0.000000D+00  E= 2.897383D+00  Symmetry=e

 Vector   74  Occ=0.000000D+00  E= 2.906054D+00  Symmetry=a2

 Vector   75  Occ=0.000000D+00  E= 2.926316D+00  Symmetry=e

 Vector   76  Occ=0.000000D+00  E= 2.926316D+00  Symmetry=e

 Vector   77  Occ=0.000000D+00  E= 3.106580D+00  Symmetry=a1

 Vector   78  Occ=0.000000D+00  E= 3.353623D+00  Symmetry=e

 Vector   79  Occ=0.000000D+00  E= 3.353623D+00  Symmetry=e

 Vector   80  Occ=0.000000D+00  E= 3.383687D+00  Symmetry=a2

 Vector   81  Occ=0.000000D+00  E= 3.396112D+00  Symmetry=a1

 Vector   82  Occ=0.000000D+00  E= 3.410318D+00  Symmetry=e

 Vector   83  Occ=0.000000D+00  E= 3.410318D+00  Symmetry=e

 Vector   84  Occ=0.000000D+00  E= 3.557613D+00  Symmetry=a1

 Vector   85  Occ=0.000000D+00  E= 3.901077D+00  Symmetry=e

 Vector   86  Occ=0.000000D+00  E= 3.901077D+00  Symmetry=e

 Vector   87  Occ=0.000000D+00  E= 4.003904D+00  Symmetry=a1

 Vector   88  Occ=0.000000D+00  E= 4.318260D+00  Symmetry=e

 Vector   89  Occ=0.000000D+00  E= 4.318260D+00  Symmetry=e

 Vector   90  Occ=0.000000D+00  E= 4.508127D+00  Symmetry=a1

 Vector   91  Occ=0.000000D+00  E= 4.824567D+00  Symmetry=a1

 Vector   92  Occ=0.000000D+00  E= 4.900507D+00  Symmetry=e

 Vector   93  Occ=0.000000D+00  E= 4.900507D+00  Symmetry=e

 Vector   94  Occ=0.000000D+00  E= 5.991198D+00  Symmetry=e

 Vector   95  Occ=0.000000D+00  E= 5.991198D+00  Symmetry=e

 Vector   96  Occ=0.000000D+00  E= 8.288070D+00  Symmetry=a2

 Vector   97  Occ=0.000000D+00  E= 8.335462D+00  Symmetry=e

 Vector   98  Occ=0.000000D+00  E= 8.335462D+00  Symmetry=e

 Vector   99  Occ=0.000000D+00  E= 8.440561D+00  Symmetry=e

 Vector  100  Occ=0.000000D+00  E= 8.440561D+00  Symmetry=e

 Vector  101  Occ=0.000000D+00  E= 8.441534D+00  Symmetry=a1

 Vector  102  Occ=0.000000D+00  E= 9.110137D+00  Symmetry=e

 Vector  103  Occ=0.000000D+00  E= 9.110137D+00  Symmetry=e

 Vector  104  Occ=0.000000D+00  E= 9.295236D+00  Symmetry=a1

 Vector  105  Occ=0.000000D+00  E= 9.998685D+00  Symmetry=a1

 Vector  106  Occ=0.000000D+00  E= 1.831395D+01  Symmetry=a1

 Vector  107  Occ=0.000000D+00  E= 1.836332D+01  Symmetry=e

 Vector  108  Occ=0.000000D+00  E= 1.836332D+01  Symmetry=e

 Vector  109  Occ=0.000000D+00  E= 2.459820D+01  Symmetry=a1

 Vector  110  Occ=0.000000D+00  E= 2.189534D+02  Symmetry=a1

     Multipole analysis of the density
     ---------------------------------

     L   x y z        total         alpha         beta         nuclear
     -   - - -        -----         -----         ----         -------
     0   0 0 0      1.000000     -9.000000     -9.000000     19.000000

     1   1 0 0     -0.000000     -0.000000     -0.000000      0.000000
     1   0 1 0     -0.000000     -0.000000     -0.000000      0.000000
     1   0 0 1     -0.575694     -0.287847     -0.287847      0.000000

     2   2 0 0     -6.985172     -7.073876     -7.073876      7.162579
     2   1 1 0     -0.000000      0.000000      0.000000     -0.000000
     2   1 0 1      0.000000      0.000000      0.000000      0.000000
     2   0 2 0     -6.985172     -7.073876     -7.073876      7.162579
     2   0 1 1     -0.000000     -0.000000     -0.000000     -0.000000

 Total times  cpu:        2.6s     wall:        3.5s
