 Output coordinates in angstroms (scale by  1.889725989 to convert to a.u.)

  No.       Tag          Charge          X              Y              Z
 ---- ---------------- ---------- -------------- -------------- --------------
    1 S                   16.0000     0.00000000     0.00000000     0.10213556
    2 H                    1.0000    -0.97427000     0.00000000    -0.81708444
    3 H                    1.0000     0.97427000     0.00000000    -0.81708444

         Total DFT energy =     -399.433815746258

                       DFT Final Molecular Orbital Analysis
                       ------------------------------------

 Vector    1  Occ=2.000000D+00  E=-8.835772D+01  Symmetry=a1

 Vector   12  Occ=0.000000D+00  E= 3.463058D-02  Symmetry=b1

 Vector   13  Occ=0.000000D+00  E= 4.517839D-02  Symmetry=a1

 Vector   14  Occ=0.000000D+00  E= 5.112312D-02  Symmetry=b2

 Vector   15  Occ=0.000000D+00  E= 6.983625D-02  Symmetry=a1

 Vector   16  Occ=0.000000D+00  E= 1.006894D-01  Symmetry=b1

 Vector   17  Occ=0.000000D+00  E= 1.033897D-01  Symmetry=a1

 Vector   18  Occ=0.000000D+00  E= 1.519318D-01  Symmetry=a1

 Vector   19  Occ=0.000000D+00  E= 1.777611D-01  Symmetry=a2

 Vector   20  Occ=0.000000D+00  E= 1.865165D-01  Symmetry=b2

 Vector   21  Occ=0.000000D+00  E= 2.608381D-01  Symmetry=b1

 Vector   22  Occ=0.000000D+00  E= 2.732320D-01  Symmetry=a1

 Vector   23  Occ=0.000000D+00  E= 2.852286D-01  Symmetry=a1

 Vector   24  Occ=0.000000D+00  E= 3.038678D-01  Symmetry=b2

 Vector   25  Occ=0.000000D+00  E= 3.381726D-01  Symmetry=b1

 Vector   26  Occ=0.000000D+00  E= 4.032744D-01  Symmetry=a1

 Vector   27  Occ=0.000000D+00  E= 4.367221D-01  Symmetry=b1

 Vector   28  Occ=0.000000D+00  E= 4.534534D-01  Symmetry=a1

 Vector   29  Occ=0.000000D+00  E= 4.616181D-01  Symmetry=a2

 Vector   30  Occ=0.000000D+00  E= 4.961488D-01  Symmetry=b2

 Vector   31  Occ=0.000000D+00  E= 5.326192D-01  Symmetry=a1

 Vector   32  Occ=0.000000D+00  E= 5.428922D-01  Symmetry=b1

 Vector   33  Occ=0.000000D+00  E= 7.458320D-01  Symmetry=a1

 Vector   34  Occ=0.000000D+00  E= 7.893608D-01  Symmetry=b1

 Vector   35  Occ=0.000000D+00  E= 9.343874D-01  Symmetry=a2

 Vector   36  Occ=0.000000D+00  E= 9.374247D-01  Symmetry=a1

 Vector   37  Occ=0.000000D+00  E= 9.480678D-01  Symmetry=b1

 Vector   38  Occ=0.000000D+00  E= 9.489767D-01  Symmetry=b2

 Vector   39  Occ=0.000000D+00  E= 9.920625D-01  Symmetry=a1

 Vector   40  Occ=0.000000D+00  E= 1.095381D+00  Symmetry=b2

 Vector   41  Occ=0.000000D+00  E= 1.169764D+00  Symmetry=a1

 Vector   42  Occ=0.000000D+00  E= 1.231645D+00  Symmetry=b1

 Vector   43  Occ=0.000000D+00  E= 1.362677D+00  Symmetry=a1

 Vector   44  Occ=0.000000D+00  E= 1.541771D+00  Symmetry=a2

 Vector   45  Occ=0.000000D+00  E= 1.547740D+00  Symmetry=b1

 Vector   46  Occ=0.000000D+00  E= 1.560369D+00  Symmetry=b2

 Vector   47  Occ=0.000000D+00  E= 1.598421D+00  Symmetry=a1

 Vector   48  Occ=0.000000D+00  E= 1.603438D+00  Symmetry=b2

 Vector   49  Occ=0.000000D+00  E= 1.869382D+00  Symmetry=b1

 Vector   50  Occ=0.000000D+00  E= 1.886500D+00  Symmetry=a1

 Vector   51  Occ=0.000000D+00  E= 1.932673D+00  Symmetry=a1

 Vector   52  Occ=0.000000D+00  E= 1.968292D+00  Symmetry=b1

 Vector   53  Occ=0.000000D+00  E= 2.032030D+00  Symmetry=b2

 Vector   54  Occ=0.000000D+00  E= 2.106664D+00  Symmetry=a2

 Vector   55  Occ=0.000000D+00  E= 2.214441D+00  Symmetry=b1

 Vector   56  Occ=0.000000D+00  E= 2.251697D+00  Symmetry=a1

 Vector   57  Occ=0.000000D+00  E= 2.489622D+00  Symmetry=b1

 Vector   58  Occ=0.000000D+00  E= 2.660780D+00  Symmetry=a1

 Vector   59  Occ=0.000000D+00  E= 3.000049D+00  Symmetry=b2

 Vector   60  Occ=0.000000D+00  E= 3.018839D+00  Symmetry=a2

 Vector   61  Occ=0.000000D+00  E= 3.108370D+00  Symmetry=a1

 Vector   62  Occ=0.000000D+00  E= 3.134622D+00  Symmetry=b1

 Vector   63  Occ=0.000000D+00  E= 3.142497D+00  Symmetry=a1

 Vector   64  Occ=0.000000D+00  E= 3.242543D+00  Symmetry=b2

 Vector   65  Occ=0.000000D+00  E= 3.250226D+00  Symmetry=b1

 Vector   66  Occ=0.000000D+00  E= 3.627027D+00  Symmetry=a2

 Vector   67  Occ=0.000000D+00  E= 3.637066D+00  Symmetry=b1

 Vector   68  Occ=0.000000D+00  E= 3.650680D+00  Symmetry=b2

 Vector   69  Occ=0.000000D+00  E= 3.658598D+00  Symmetry=a1

 Vector   70  Occ=0.000000D+00  E= 3.860829D+00  Symmetry=a1

 Vector   71  Occ=0.000000D+00  E= 4.197133D+00  Symmetry=b1

 Vector   72  Occ=0.000000D+00  E= 4.241463D+00  Symmetry=a1

 Vector   73  Occ=0.000000D+00  E= 4.567405D+00  Symmetry=b1

 Vector   74  Occ=0.000000D+00  E= 4.625395D+00  Symmetry=a1

 Vector   75  Occ=0.000000D+00  E= 4.819928D+00  Symmetry=b2

 Vector   76  Occ=0.000000D+00  E= 4.854543D+00  Symmetry=a2

 Vector   77  Occ=0.000000D+00  E= 5.192435D+00  Symmetry=a1

 Vector   78  Occ=0.000000D+00  E= 5.359013D+00  Symmetry=a1

 Vector   79  Occ=0.000000D+00  E= 6.226938D+00  Symmetry=b1

 Vector   80  Occ=0.000000D+00  E= 8.608781D+00  Symmetry=b1

 Vector   81  Occ=0.000000D+00  E= 8.612480D+00  Symmetry=a2

 Vector   82  Occ=0.000000D+00  E= 8.646356D+00  Symmetry=b2

 Vector   83  Occ=0.000000D+00  E= 8.720018D+00  Symmetry=a1

 Vector   84  Occ=0.000000D+00  E= 9.358473D+00  Symmetry=b1

 Vector   85  Occ=0.000000D+00  E= 9.481633D+00  Symmetry=a1

 Vector   86  Occ=0.000000D+00  E= 1.022654D+01  Symmetry=a1

 Vector   87  Occ=0.000000D+00  E= 1.847461D+01  Symmetry=b2

 Vector   88  Occ=0.000000D+00  E= 1.866791D+01  Symmetry=a1

 Vector   89  Occ=0.000000D+00  E= 1.868905D+01  Symmetry=b1

 Vector   90  Occ=0.000000D+00  E= 2.492064D+01  Symmetry=a1

 Vector   91  Occ=0.000000D+00  E= 2.192653D+02  Symmetry=a1

     Multipole analysis of the density
     ---------------------------------

     L   x y z        total         alpha         beta         nuclear
     -   - - -        -----         -----         ----         -------
     0   0 0 0     -0.000000     -9.000000     -9.000000     18.000000

     1   1 0 0     -0.000000     -0.000000     -0.000000      0.000000
     1   0 1 0     -0.000000     -0.000000     -0.000000      0.000000
     1   0 0 1     -0.388334     -0.194167     -0.194167     -0.000000

     2   2 0 0     -9.132560     -7.955942     -7.955942      6.779323
     2   1 1 0     -0.000000     -0.000000     -0.000000      0.000000
     2   1 0 1      0.000000      0.000000      0.000000      0.000000
     2   0 2 0    -12.371370     -6.185685     -6.185685      0.000000
     2   0 1 1      0.000000      0.000000      0.000000      0.000000

 Total times  cpu:        1.5s     wall:        2.7s
