 Output coordinates in angstroms (scale by  1.889725989 to convert to a.u.)

  No.       Tag          Charge          X              Y              Z
 ---- ---------------- ---------- -------------- -------------- --------------
    1 Cl                  17.0000     0.00000000     0.00000000    -0.09115219
    2 H                    1.0000    -0.97252313     0.00000000     0.77479365
    3 H                    1.0000     0.97252313     0.00000000     0.77479365

         Total DFT energy =     -461.067045063262

                       DFT Final Molecular Orbital Analysis
                       ------------------------------------

 Vector    1  Occ=2.000000D+00  E=-1.014084D+02  Symmetry=a1

 Vector   12  Occ=0.000000D+00  E=-1.689149D-01  Symmetry=a1

 Vector   13  Occ=0.000000D+00  E=-1.405800D-01  Symmetry=b1

 Vector   14  Occ=0.000000D+00  E=-1.355551D-01  Symmetry=a1

 Vector   15  Occ=0.000000D+00  E=-1.192523D-01  Symmetry=b2

 Vector   16  Occ=0.000000D+00  E=-1.092381D-01  Symmetry=a1

 Vector   17  Occ=0.000000D+00  E=-1.028157D-01  Symmetry=a2

 Vector   18  Occ=0.000000D+00  E=-8.357005D-02  Symmetry=b2

 Vector   19  Occ=0.000000D+00  E=-5.339838D-02  Symmetry=a1

 Vector   20  Occ=0.000000D+00  E=-3.723373D-02  Symmetry=b1

 Vector   21  Occ=0.000000D+00  E= 5.414666D-02  Symmetry=b1

 Vector   22  Occ=0.000000D+00  E= 7.174219D-02  Symmetry=a1

 Vector   23  Occ=0.000000D+00  E= 1.341073D-01  Symmetry=a1

 Vector   24  Occ=0.000000D+00  E= 1.746531D-01  Symmetry=b2

 Vector   25  Occ=0.000000D+00  E= 1.851632D-01  Symmetry=a1

 Vector   26  Occ=0.000000D+00  E= 1.952757D-01  Symmetry=b1

 Vector   27  Occ=0.000000D+00  E= 2.139644D-01  Symmetry=b1

 Vector   28  Occ=0.000000D+00  E= 2.180215D-01  Symmetry=a2

 Vector   29  Occ=0.000000D+00  E= 2.365598D-01  Symmetry=a1

 Vector   30  Occ=0.000000D+00  E= 2.515069D-01  Symmetry=b2

 Vector   31  Occ=0.000000D+00  E= 2.973132D-01  Symmetry=a1

 Vector   32  Occ=0.000000D+00  E= 3.197943D-01  Symmetry=b1

 Vector   33  Occ=0.000000D+00  E= 5.646821D-01  Symmetry=a1

 Vector   34  Occ=0.000000D+00  E= 6.042298D-01  Symmetry=b1

 Vector   35  Occ=0.000000D+00  E= 7.089643D-01  Symmetry=a2

 Vector   36  Occ=0.000000D+00  E= 7.146414D-01  Symmetry=b1

 Vector   37  Occ=0.000000D+00  E= 7.298565D-01  Symmetry=b2

 Vector   38  Occ=0.000000D+00  E= 7.443917D-01  Symmetry=a1

 Vector   39  Occ=0.000000D+00  E= 7.925226D-01  Symmetry=a1

 Vector   40  Occ=0.000000D+00  E= 1.142318D+00  Symmetry=b2

 Vector   41  Occ=0.000000D+00  E= 1.156074D+00  Symmetry=a1

 Vector   42  Occ=0.000000D+00  E= 1.210979D+00  Symmetry=b1

 Vector   43  Occ=0.000000D+00  E= 1.218264D+00  Symmetry=a1

 Vector   44  Occ=0.000000D+00  E= 1.303299D+00  Symmetry=a2

 Vector   45  Occ=0.000000D+00  E= 1.374794D+00  Symmetry=b1

 Vector   46  Occ=0.000000D+00  E= 1.393842D+00  Symmetry=b2

 Vector   47  Occ=0.000000D+00  E= 1.441214D+00  Symmetry=a1

 Vector   48  Occ=0.000000D+00  E= 1.576228D+00  Symmetry=b2

 Vector   49  Occ=0.000000D+00  E= 1.767304D+00  Symmetry=a1

 Vector   50  Occ=0.000000D+00  E= 1.781222D+00  Symmetry=a1

 Vector   51  Occ=0.000000D+00  E= 1.811085D+00  Symmetry=b1

 Vector   52  Occ=0.000000D+00  E= 1.836916D+00  Symmetry=b1

 Vector   53  Occ=0.000000D+00  E= 1.946274D+00  Symmetry=b2

 Vector   54  Occ=0.000000D+00  E= 2.018783D+00  Symmetry=a2

 Vector   55  Occ=0.000000D+00  E= 2.062733D+00  Symmetry=b1

 Vector   56  Occ=0.000000D+00  E= 2.100351D+00  Symmetry=a1

 Vector   57  Occ=0.000000D+00  E= 2.376911D+00  Symmetry=b1

 Vector   58  Occ=0.000000D+00  E= 2.607962D+00  Symmetry=a1

 Vector   59  Occ=0.000000D+00  E= 2.685601D+00  Symmetry=a2

 Vector   60  Occ=0.000000D+00  E= 2.810612D+00  Symmetry=a1

 Vector   61  Occ=0.000000D+00  E= 2.883240D+00  Symmetry=b1

 Vector   62  Occ=0.000000D+00  E= 2.933695D+00  Symmetry=b2

 Vector   63  Occ=0.000000D+00  E= 3.345114D+00  Symmetry=b2

 Vector   64  Occ=0.000000D+00  E= 3.408956D+00  Symmetry=a2

 Vector   65  Occ=0.000000D+00  E= 3.414861D+00  Symmetry=a1

 Vector   66  Occ=0.000000D+00  E= 3.426613D+00  Symmetry=b1

 Vector   67  Occ=0.000000D+00  E= 3.635754D+00  Symmetry=b2

 Vector   68  Occ=0.000000D+00  E= 3.644170D+00  Symmetry=a1

 Vector   69  Occ=0.000000D+00  E= 3.732347D+00  Symmetry=b1

 Vector   70  Occ=0.000000D+00  E= 3.735611D+00  Symmetry=a1

 Vector   71  Occ=0.000000D+00  E= 3.975118D+00  Symmetry=b1

 Vector   72  Occ=0.000000D+00  E= 4.247849D+00  Symmetry=a1

 Vector   73  Occ=0.000000D+00  E= 4.257964D+00  Symmetry=b1

 Vector   74  Occ=0.000000D+00  E= 4.391829D+00  Symmetry=a1

 Vector   75  Occ=0.000000D+00  E= 4.937468D+00  Symmetry=b2

 Vector   76  Occ=0.000000D+00  E= 4.995938D+00  Symmetry=a2

 Vector   77  Occ=0.000000D+00  E= 5.220107D+00  Symmetry=a1

 Vector   78  Occ=0.000000D+00  E= 5.861516D+00  Symmetry=a1

 Vector   79  Occ=0.000000D+00  E= 6.702457D+00  Symmetry=b1

 Vector   80  Occ=0.000000D+00  E= 8.163385D+00  Symmetry=a2

 Vector   81  Occ=0.000000D+00  E= 8.184277D+00  Symmetry=b1

 Vector   82  Occ=0.000000D+00  E= 8.207987D+00  Symmetry=b2

 Vector   83  Occ=0.000000D+00  E= 8.259171D+00  Symmetry=a1

 Vector   84  Occ=0.000000D+00  E= 8.974012D+00  Symmetry=b1

 Vector   85  Occ=0.000000D+00  E= 9.177339D+00  Symmetry=a1

 Vector   86  Occ=0.000000D+00  E= 1.089235D+01  Symmetry=a1

 Vector   87  Occ=0.000000D+00  E= 2.775330D+01  Symmetry=a1

 Vector   88  Occ=0.000000D+00  E= 3.154486D+01  Symmetry=b2

 Vector   89  Occ=0.000000D+00  E= 3.199065D+01  Symmetry=a1

 Vector   90  Occ=0.000000D+00  E= 3.211092D+01  Symmetry=b1

 Vector   91  Occ=0.000000D+00  E= 2.475405D+02  Symmetry=a1

     Multipole analysis of the density
     ---------------------------------

     L   x y z        total         alpha         beta         nuclear
     -   - - -        -----         -----         ----         -------
     0   0 0 0      1.000000     -9.000000     -9.000000     19.000000

     1   1 0 0      0.000000      0.000000      0.000000      0.000000
     1   0 1 0     -0.000000     -0.000000     -0.000000      0.000000
     1   0 0 1      0.727125      0.363562      0.363562      0.000000

     2   2 0 0     -5.399664     -6.077349     -6.077349      6.755034
     2   1 1 0     -0.000000     -0.000000     -0.000000      0.000000
     2   1 0 1      0.000000      0.000000      0.000000      0.000000
     2   0 2 0     -9.119182     -4.559591     -4.559591      0.000000
     2   0 1 1     -0.000000     -0.000000     -0.000000      0.000000

 Total times  cpu:        1.5s     wall:        2.4s
