 Output coordinates in angstroms (scale by  1.889725989 to convert to a.u.)

  No.       Tag          Charge          X              Y              Z
 ---- ---------------- ---------- -------------- -------------- --------------
    1 Cl                  17.0000     0.00000000     0.00000000     0.07111000
    2 H                    1.0000     0.00000000     0.00000000    -1.20887000

         Total DFT energy =     -460.843408588262

                       DFT Final Molecular Orbital Analysis
                       ------------------------------------

 Vector    1  Occ=2.000000D+00  E=-1.010211D+02  Symmetry=a1

 Vector    2  Occ=2.000000D+00  E=-9.259991D+00  Symmetry=a1

 Vector    3  Occ=2.000000D+00  E=-7.041091D+00  Symmetry=a1

 Vector    4  Occ=2.000000D+00  E=-7.030912D+00  Symmetry=e

 Vector    5  Occ=2.000000D+00  E=-7.030912D+00  Symmetry=e

 Vector    6  Occ=2.000000D+00  E=-7.896696D-01  Symmetry=a1

 Vector    7  Occ=2.000000D+00  E=-4.390784D-01  Symmetry=a1

 Vector    8  Occ=2.000000D+00  E=-2.995403D-01  Symmetry=e

 Vector    9  Occ=2.000000D+00  E=-2.995403D-01  Symmetry=e

 Vector   10  Occ=0.000000D+00  E=-3.412977D-02  Symmetry=a1

 Vector   11  Occ=0.000000D+00  E= 3.515896D-02  Symmetry=a1

 Vector   12  Occ=0.000000D+00  E= 5.469137D-02  Symmetry=a1

 Vector   13  Occ=0.000000D+00  E= 6.567046D-02  Symmetry=e

 Vector   14  Occ=0.000000D+00  E= 6.567046D-02  Symmetry=e

 Vector   15  Occ=0.000000D+00  E= 1.160871D-01  Symmetry=a1

 Vector   16  Occ=0.000000D+00  E= 1.955129D-01  Symmetry=e

 Vector   17  Occ=0.000000D+00  E= 1.955129D-01  Symmetry=e

 Vector   18  Occ=0.000000D+00  E= 2.502771D-01  Symmetry=b2

 Vector   19  Occ=0.000000D+00  E= 2.502779D-01  Symmetry=b1

 Vector   20  Occ=0.000000D+00  E= 2.629890D-01  Symmetry=a1

 Vector   21  Occ=0.000000D+00  E= 3.661717D-01  Symmetry=a1

 Vector   22  Occ=0.000000D+00  E= 4.068134D-01  Symmetry=e

 Vector   23  Occ=0.000000D+00  E= 4.068134D-01  Symmetry=e

 Vector   24  Occ=0.000000D+00  E= 4.580587D-01  Symmetry=a1

 Vector   25  Occ=0.000000D+00  E= 4.874677D-01  Symmetry=e

 Vector   26  Occ=0.000000D+00  E= 4.874677D-01  Symmetry=e

 Vector   27  Occ=0.000000D+00  E= 5.293660D-01  Symmetry=a1

 Vector   28  Occ=0.000000D+00  E= 8.077126D-01  Symmetry=a1

 Vector   29  Occ=0.000000D+00  E= 1.035499D+00  Symmetry=e

 Vector   30  Occ=0.000000D+00  E= 1.035499D+00  Symmetry=e

 Vector   31  Occ=0.000000D+00  E= 1.045038D+00  Symmetry=a1

 Vector   32  Occ=0.000000D+00  E= 1.051945D+00  Symmetry=b1

 Vector   33  Occ=0.000000D+00  E= 1.051949D+00  Symmetry=b2

 Vector   34  Occ=0.000000D+00  E= 1.445354D+00  Symmetry=e

 Vector   35  Occ=0.000000D+00  E= 1.445354D+00  Symmetry=e

 Vector   36  Occ=0.000000D+00  E= 1.453734D+00  Symmetry=a1

 Vector   37  Occ=0.000000D+00  E= 1.566348D+00  Symmetry=a1

 Vector   38  Occ=0.000000D+00  E= 1.656982D+00  Symmetry=e

 Vector   39  Occ=0.000000D+00  E= 1.656982D+00  Symmetry=e

 Vector   40  Occ=0.000000D+00  E= 1.965005D+00  Symmetry=b1

 Vector   41  Occ=0.000000D+00  E= 1.965007D+00  Symmetry=b2

 Vector   42  Occ=0.000000D+00  E= 2.037365D+00  Symmetry=e

 Vector   43  Occ=0.000000D+00  E= 2.037365D+00  Symmetry=e

 Vector   44  Occ=0.000000D+00  E= 2.095456D+00  Symmetry=a1

 Vector   45  Occ=0.000000D+00  E= 2.262713D+00  Symmetry=a1

 Vector   46  Occ=0.000000D+00  E= 2.327234D+00  Symmetry=e

 Vector   47  Occ=0.000000D+00  E= 2.327234D+00  Symmetry=e

 Vector   48  Occ=0.000000D+00  E= 2.807076D+00  Symmetry=a1

 Vector   49  Occ=0.000000D+00  E= 3.128440D+00  Symmetry=b2

 Vector   50  Occ=0.000000D+00  E= 3.128440D+00  Symmetry=b1

 Vector   51  Occ=0.000000D+00  E= 3.704060D+00  Symmetry=e

 Vector   52  Occ=0.000000D+00  E= 3.704060D+00  Symmetry=e

 Vector   53  Occ=0.000000D+00  E= 3.947368D+00  Symmetry=e

 Vector   54  Occ=0.000000D+00  E= 3.947368D+00  Symmetry=e

 Vector   55  Occ=0.000000D+00  E= 3.992964D+00  Symmetry=a1

 Vector   56  Occ=0.000000D+00  E= 4.117472D+00  Symmetry=a1

 Vector   57  Occ=0.000000D+00  E= 4.471250D+00  Symmetry=a1

 Vector   58  Occ=0.000000D+00  E= 4.641458D+00  Symmetry=a1

 Vector   59  Occ=0.000000D+00  E= 5.073356D+00  Symmetry=b1

 Vector   60  Occ=0.000000D+00  E= 5.073369D+00  Symmetry=b2

 Vector   61  Occ=0.000000D+00  E= 5.341988D+00  Symmetry=e

 Vector   62  Occ=0.000000D+00  E= 5.341988D+00  Symmetry=e

 Vector   63  Occ=0.000000D+00  E= 6.665229D+00  Symmetry=a1

 Vector   64  Occ=0.000000D+00  E= 8.506083D+00  Symmetry=e

 Vector   65  Occ=0.000000D+00  E= 8.506083D+00  Symmetry=e

 Vector   66  Occ=0.000000D+00  E= 9.346318D+00  Symmetry=a1

 Vector   67  Occ=0.000000D+00  E= 1.118800D+01  Symmetry=a1

 Vector   68  Occ=0.000000D+00  E= 2.807645D+01  Symmetry=a1

 Vector   69  Occ=0.000000D+00  E= 3.189921D+01  Symmetry=e

 Vector   70  Occ=0.000000D+00  E= 3.189921D+01  Symmetry=e

 Vector   71  Occ=0.000000D+00  E= 3.240783D+01  Symmetry=a1

 Vector   72  Occ=0.000000D+00  E= 2.478382D+02  Symmetry=a1

     Multipole analysis of the density
     ---------------------------------

     L   x y z        total         alpha         beta         nuclear
     -   - - -        -----         -----         ----         -------
     0   0 0 0     -0.000000     -9.000000     -9.000000     18.000000

     1   1 0 0      0.000000      0.000000      0.000000      0.000000
     1   0 1 0      0.000000      0.000000      0.000000      0.000000
     1   0 0 1     -0.429107     -0.214554     -0.214554     -0.000000

     2   2 0 0    -10.426327     -5.213164     -5.213164      0.000000
     2   1 1 0      0.000000      0.000000      0.000000      0.000000
     2   1 0 1      0.000000      0.000000      0.000000      0.000000
     2   0 2 0    -10.426327     -5.213164     -5.213164      0.000000
     2   0 1 1      0.000000      0.000000      0.000000      0.000000

 Total times  cpu:        1.3s     wall:        2.6s
