 Output coordinates in angstroms (scale by  1.889725989 to convert to a.u.)

  No.       Tag          Charge          X              Y              Z
 ---- ---------------- ---------- -------------- -------------- --------------
    1 N                    7.0000     0.00000000     0.00000000     0.00000000
    2 H                    1.0000     0.59382114     0.59382114     0.59382114
    3 H                    1.0000    -0.59382114    -0.59382114     0.59382114
    4 H                    1.0000     0.59382114    -0.59382114    -0.59382114
    5 H                    1.0000    -0.59382114     0.59382114    -0.59382114

         Total DFT energy =      -56.928386027207

                       DFT Final Molecular Orbital Analysis
                       ------------------------------------

 Vector    1  Occ=2.000000D+00  E=-1.447383D+01  Symmetry=a1

 Vector   42  Occ=0.000000D+00  E= 8.397609D-01  Symmetry=a1

 Vector   43  Occ=0.000000D+00  E= 1.390988D+00  Symmetry=a1

 Vector   44  Occ=0.000000D+00  E= 1.476809D+00  Symmetry=t1

 Vector   45  Occ=0.000000D+00  E= 1.476809D+00  Symmetry=t1

 Vector   46  Occ=0.000000D+00  E= 1.476809D+00  Symmetry=t1

 Vector   47  Occ=0.000000D+00  E= 1.609353D+00  Symmetry=t2

 Vector   48  Occ=0.000000D+00  E= 1.609353D+00  Symmetry=t2

 Vector   49  Occ=0.000000D+00  E= 1.609353D+00  Symmetry=t2

 Vector   50  Occ=0.000000D+00  E= 1.727012D+00  Symmetry=e

 Vector   51  Occ=0.000000D+00  E= 1.727012D+00  Symmetry=e

 Vector   52  Occ=0.000000D+00  E= 1.761719D+00  Symmetry=t2

 Vector   53  Occ=0.000000D+00  E= 1.761719D+00  Symmetry=t2

 Vector   54  Occ=0.000000D+00  E= 1.761719D+00  Symmetry=t2

 Vector   55  Occ=0.000000D+00  E= 2.184006D+00  Symmetry=e

 Vector   56  Occ=0.000000D+00  E= 2.184006D+00  Symmetry=e

 Vector   57  Occ=0.000000D+00  E= 2.361047D+00  Symmetry=a1

 Vector   58  Occ=0.000000D+00  E= 2.503261D+00  Symmetry=t2

 Vector   59  Occ=0.000000D+00  E= 2.503261D+00  Symmetry=t2

 Vector   60  Occ=0.000000D+00  E= 2.503261D+00  Symmetry=t2

 Vector   61  Occ=0.000000D+00  E= 2.584063D+00  Symmetry=a1

 Vector   62  Occ=0.000000D+00  E= 2.737536D+00  Symmetry=t2

 Vector   63  Occ=0.000000D+00  E= 2.737536D+00  Symmetry=t2

 Vector   64  Occ=0.000000D+00  E= 2.737536D+00  Symmetry=t2

 Vector   65  Occ=0.000000D+00  E= 2.762865D+00  Symmetry=t1

 Vector   66  Occ=0.000000D+00  E= 2.762865D+00  Symmetry=t1

 Vector   67  Occ=0.000000D+00  E= 2.762865D+00  Symmetry=t1

 Vector   68  Occ=0.000000D+00  E= 2.971779D+00  Symmetry=t2

 Vector   69  Occ=0.000000D+00  E= 2.971779D+00  Symmetry=t2

 Vector   70  Occ=0.000000D+00  E= 2.971779D+00  Symmetry=t2

 Vector   71  Occ=0.000000D+00  E= 2.991151D+00  Symmetry=e

 Vector   72  Occ=0.000000D+00  E= 2.991151D+00  Symmetry=e

 Vector   73  Occ=0.000000D+00  E= 3.412862D+00  Symmetry=t1

 Vector   74  Occ=0.000000D+00  E= 3.412862D+00  Symmetry=t1

 Vector   75  Occ=0.000000D+00  E= 3.412862D+00  Symmetry=t1

 Vector   76  Occ=0.000000D+00  E= 3.806222D+00  Symmetry=t2

 Vector   77  Occ=0.000000D+00  E= 3.806222D+00  Symmetry=t2

 Vector   78  Occ=0.000000D+00  E= 3.806222D+00  Symmetry=t2

 Vector   79  Occ=0.000000D+00  E= 4.047439D+00  Symmetry=a1

 Vector   80  Occ=0.000000D+00  E= 4.254923D+00  Symmetry=t2

 Vector   81  Occ=0.000000D+00  E= 4.254923D+00  Symmetry=t2

 Vector   82  Occ=0.000000D+00  E= 4.254923D+00  Symmetry=t2

 Vector   83  Occ=0.000000D+00  E= 4.506670D+00  Symmetry=t2

 Vector   84  Occ=0.000000D+00  E= 4.506670D+00  Symmetry=t2

 Vector   85  Occ=0.000000D+00  E= 4.506670D+00  Symmetry=t2

 Vector   86  Occ=0.000000D+00  E= 4.627179D+00  Symmetry=e

 Vector   87  Occ=0.000000D+00  E= 4.627179D+00  Symmetry=e

 Vector   88  Occ=0.000000D+00  E= 4.874916D+00  Symmetry=a1

 Vector   89  Occ=0.000000D+00  E= 5.014273D+00  Symmetry=t2

 Vector   90  Occ=0.000000D+00  E= 5.014273D+00  Symmetry=t2

 Vector   91  Occ=0.000000D+00  E= 5.014273D+00  Symmetry=t2

 Vector   92  Occ=0.000000D+00  E= 5.185114D+00  Symmetry=a1

 Vector   93  Occ=0.000000D+00  E= 5.201376D+00  Symmetry=t1

 Vector   94  Occ=0.000000D+00  E= 5.201376D+00  Symmetry=t1

 Vector   95  Occ=0.000000D+00  E= 5.201376D+00  Symmetry=t1

 Vector   96  Occ=0.000000D+00  E= 6.480937D+00  Symmetry=t2

 Vector   97  Occ=0.000000D+00  E= 6.480937D+00  Symmetry=t2

 Vector   98  Occ=0.000000D+00  E= 6.480937D+00  Symmetry=t2

 Vector   99  Occ=0.000000D+00  E= 8.287162D+00  Symmetry=t1

 Vector  100  Occ=0.000000D+00  E= 8.287162D+00  Symmetry=t1

 Vector  101  Occ=0.000000D+00  E= 8.287162D+00  Symmetry=t1

 Vector  102  Occ=0.000000D+00  E= 8.469297D+00  Symmetry=t2

 Vector  103  Occ=0.000000D+00  E= 8.469297D+00  Symmetry=t2

 Vector  104  Occ=0.000000D+00  E= 8.469297D+00  Symmetry=t2

 Vector  105  Occ=0.000000D+00  E= 8.557868D+00  Symmetry=e

 Vector  106  Occ=0.000000D+00  E= 8.557868D+00  Symmetry=e

 Vector  107  Occ=0.000000D+00  E= 9.221401D+00  Symmetry=t2

 Vector  108  Occ=0.000000D+00  E= 9.221401D+00  Symmetry=t2

 Vector  109  Occ=0.000000D+00  E= 9.221401D+00  Symmetry=t2

 Vector  110  Occ=0.000000D+00  E= 9.386710D+00  Symmetry=a1

 Vector  111  Occ=0.000000D+00  E= 9.468616D+00  Symmetry=a1

 Vector  112  Occ=0.000000D+00  E= 1.074008D+01  Symmetry=e

 Vector  113  Occ=0.000000D+00  E= 1.074008D+01  Symmetry=e

 Vector  114  Occ=0.000000D+00  E= 1.088524D+01  Symmetry=t2

 Vector  115  Occ=0.000000D+00  E= 1.088524D+01  Symmetry=t2

 Vector  116  Occ=0.000000D+00  E= 1.088524D+01  Symmetry=t2

 Vector  117  Occ=0.000000D+00  E= 1.249115D+01  Symmetry=t2

 Vector  118  Occ=0.000000D+00  E= 1.249115D+01  Symmetry=t2

 Vector  119  Occ=0.000000D+00  E= 1.249115D+01  Symmetry=t2

 Vector  120  Occ=0.000000D+00  E= 1.419019D+01  Symmetry=a1

 Vector  121  Occ=0.000000D+00  E= 4.272488D+01  Symmetry=a1

     Multipole analysis of the density
     ---------------------------------

     L   x y z        total         alpha         beta         nuclear
     -   - - -        -----         -----         ----         -------
     0   0 0 0      1.000000     -5.000000     -5.000000     11.000000

     1   1 0 0      0.000000      0.000000      0.000000      0.000000
     1   0 1 0     -0.000000     -0.000000     -0.000000      0.000000
     1   0 0 1     -0.000000     -0.000000     -0.000000      0.000000

     2   2 0 0     -3.208710     -4.122838     -4.122838      5.036965
     2   1 1 0      0.000000      0.000000      0.000000      0.000000
     2   1 0 1      0.000000      0.000000      0.000000      0.000000
     2   0 2 0     -3.208710     -4.122838     -4.122838      5.036965
     2   0 1 1      0.000000      0.000000      0.000000      0.000000

 Total times  cpu:        1.7s     wall:        3.0s
