 Output coordinates in angstroms (scale by  1.889725989 to convert to a.u.)

  No.       Tag          Charge          X              Y              Z
 ---- ---------------- ---------- -------------- -------------- --------------
    1 N                    7.0000     0.00000000     0.00000000     0.11649000
    2 H                    1.0000    -0.66448826    -0.66448826    -0.27181000
    3 H                    1.0000    -0.24321958     0.90770784    -0.27181000
    4 H                    1.0000     0.90770784    -0.24321958    -0.27181000

         Total DFT energy =      -56.588503984210

                       DFT Final Molecular Orbital Analysis
                       ------------------------------------

 Vector    1  Occ=2.000000D+00  E=-1.408216D+01  Symmetry=a1

 Vector   23  Occ=0.000000D+00  E= 5.444671D-01  Symmetry=e

 Vector   24  Occ=0.000000D+00  E= 5.444671D-01  Symmetry=e

 Vector   25  Occ=0.000000D+00  E= 5.949693D-01  Symmetry=a1

 Vector   26  Occ=0.000000D+00  E= 6.744935D-01  Symmetry=a1

 Vector   27  Occ=0.000000D+00  E= 6.957497D-01  Symmetry=e

 Vector   28  Occ=0.000000D+00  E= 6.957497D-01  Symmetry=e

 Vector   29  Occ=0.000000D+00  E= 7.691395D-01  Symmetry=e

 Vector   30  Occ=0.000000D+00  E= 7.691395D-01  Symmetry=e

 Vector   31  Occ=0.000000D+00  E= 8.742504D-01  Symmetry=e

 Vector   32  Occ=0.000000D+00  E= 8.742504D-01  Symmetry=e

 Vector   33  Occ=0.000000D+00  E= 9.296464D-01  Symmetry=a1

 Vector   34  Occ=0.000000D+00  E= 1.002004D+00  Symmetry=e

 Vector   35  Occ=0.000000D+00  E= 1.002004D+00  Symmetry=e

 Vector   36  Occ=0.000000D+00  E= 1.068691D+00  Symmetry=a1

 Vector   37  Occ=0.000000D+00  E= 1.718123D+00  Symmetry=a1

 Vector   38  Occ=0.000000D+00  E= 1.793059D+00  Symmetry=e

 Vector   39  Occ=0.000000D+00  E= 1.793059D+00  Symmetry=e

 Vector   40  Occ=0.000000D+00  E= 1.800488D+00  Symmetry=a2

 Vector   41  Occ=0.000000D+00  E= 1.838235D+00  Symmetry=a1

 Vector   42  Occ=0.000000D+00  E= 1.933767D+00  Symmetry=e

 Vector   43  Occ=0.000000D+00  E= 1.933767D+00  Symmetry=e

 Vector   44  Occ=0.000000D+00  E= 2.027775D+00  Symmetry=e

 Vector   45  Occ=0.000000D+00  E= 2.027775D+00  Symmetry=e

 Vector   46  Occ=0.000000D+00  E= 2.302903D+00  Symmetry=a1

 Vector   47  Occ=0.000000D+00  E= 2.536086D+00  Symmetry=e

 Vector   48  Occ=0.000000D+00  E= 2.536086D+00  Symmetry=e

 Vector   49  Occ=0.000000D+00  E= 2.585187D+00  Symmetry=a1

 Vector   50  Occ=0.000000D+00  E= 2.801103D+00  Symmetry=e

 Vector   51  Occ=0.000000D+00  E= 2.801103D+00  Symmetry=e

 Vector   52  Occ=0.000000D+00  E= 2.845075D+00  Symmetry=a1

 Vector   53  Occ=0.000000D+00  E= 2.952716D+00  Symmetry=e

 Vector   54  Occ=0.000000D+00  E= 2.952716D+00  Symmetry=e

 Vector   55  Occ=0.000000D+00  E= 2.982131D+00  Symmetry=a1

 Vector   56  Occ=0.000000D+00  E= 3.110986D+00  Symmetry=a2

 Vector   57  Occ=0.000000D+00  E= 3.202245D+00  Symmetry=e

 Vector   58  Occ=0.000000D+00  E= 3.202245D+00  Symmetry=e

 Vector   59  Occ=0.000000D+00  E= 3.259772D+00  Symmetry=e

 Vector   60  Occ=0.000000D+00  E= 3.259772D+00  Symmetry=e

 Vector   61  Occ=0.000000D+00  E= 3.579030D+00  Symmetry=a1

 Vector   62  Occ=0.000000D+00  E= 3.682218D+00  Symmetry=e

 Vector   63  Occ=0.000000D+00  E= 3.682218D+00  Symmetry=e

 Vector   64  Occ=0.000000D+00  E= 3.835609D+00  Symmetry=a2

 Vector   65  Occ=0.000000D+00  E= 4.045424D+00  Symmetry=e

 Vector   66  Occ=0.000000D+00  E= 4.045424D+00  Symmetry=e

 Vector   67  Occ=0.000000D+00  E= 4.400150D+00  Symmetry=a1

 Vector   68  Occ=0.000000D+00  E= 4.448415D+00  Symmetry=a1

 Vector   69  Occ=0.000000D+00  E= 4.510636D+00  Symmetry=e

 Vector   70  Occ=0.000000D+00  E= 4.510636D+00  Symmetry=e

 Vector   71  Occ=0.000000D+00  E= 4.828922D+00  Symmetry=e

 Vector   72  Occ=0.000000D+00  E= 4.828922D+00  Symmetry=e

 Vector   73  Occ=0.000000D+00  E= 4.977550D+00  Symmetry=a1

 Vector   74  Occ=0.000000D+00  E= 5.004018D+00  Symmetry=a1

 Vector   75  Occ=0.000000D+00  E= 5.207324D+00  Symmetry=e

 Vector   76  Occ=0.000000D+00  E= 5.207324D+00  Symmetry=e

 Vector   77  Occ=0.000000D+00  E= 5.365583D+00  Symmetry=e

 Vector   78  Occ=0.000000D+00  E= 5.365583D+00  Symmetry=e

 Vector   79  Occ=0.000000D+00  E= 5.451493D+00  Symmetry=a1

 Vector   80  Occ=0.000000D+00  E= 5.500341D+00  Symmetry=a2

 Vector   81  Occ=0.000000D+00  E= 6.866353D+00  Symmetry=e

 Vector   82  Occ=0.000000D+00  E= 6.866353D+00  Symmetry=e

 Vector   83  Occ=0.000000D+00  E= 8.113962D+00  Symmetry=a1

 Vector   84  Occ=0.000000D+00  E= 8.581081D+00  Symmetry=e

 Vector   85  Occ=0.000000D+00  E= 8.581081D+00  Symmetry=e

 Vector   86  Occ=0.000000D+00  E= 8.663200D+00  Symmetry=a2

 Vector   87  Occ=0.000000D+00  E= 8.746632D+00  Symmetry=a1

 Vector   88  Occ=0.000000D+00  E= 8.752117D+00  Symmetry=e

 Vector   89  Occ=0.000000D+00  E= 8.752117D+00  Symmetry=e

 Vector   90  Occ=0.000000D+00  E= 9.427371D+00  Symmetry=e

 Vector   91  Occ=0.000000D+00  E= 9.427371D+00  Symmetry=e

 Vector   92  Occ=0.000000D+00  E= 9.455693D+00  Symmetry=a1

 Vector   93  Occ=0.000000D+00  E= 1.089644D+01  Symmetry=e

 Vector   94  Occ=0.000000D+00  E= 1.089644D+01  Symmetry=e

 Vector   95  Occ=0.000000D+00  E= 1.119101D+01  Symmetry=a1

 Vector   96  Occ=0.000000D+00  E= 1.127536D+01  Symmetry=e

 Vector   97  Occ=0.000000D+00  E= 1.127536D+01  Symmetry=e

 Vector   98  Occ=0.000000D+00  E= 1.156022D+01  Symmetry=a1

 Vector   99  Occ=0.000000D+00  E= 1.292035D+01  Symmetry=e

 Vector  100  Occ=0.000000D+00  E= 1.292035D+01  Symmetry=e

 Vector  101  Occ=0.000000D+00  E= 1.404152D+01  Symmetry=a1

 Vector  102  Occ=0.000000D+00  E= 4.308325D+01  Symmetry=a1

     Multipole analysis of the density
     ---------------------------------

     L   x y z        total         alpha         beta         nuclear
     -   - - -        -----         -----         ----         -------
     0   0 0 0     -0.000000     -5.000000     -5.000000     10.000000

     1   1 0 0      0.000000      0.000000      0.000000      0.000000
     1   0 1 0      0.000000      0.000000      0.000000      0.000000
     1   0 0 1     -0.588282     -0.294141     -0.294141      0.000000

     2   2 0 0     -4.739195     -4.734774     -4.734774      4.730353
     2   1 1 0     -0.000000      0.000000      0.000000     -0.000000
     2   1 0 1     -0.000000     -0.000000     -0.000000     -0.000000
     2   0 2 0     -4.739195     -4.734774     -4.734774      4.730353
     2   0 1 1     -0.000000      0.000000      0.000000     -0.000000

 Total times  cpu:        1.5s     wall:        3.2s
