 Output coordinates in angstroms (scale by  1.889725989 to convert to a.u.)

  No.       Tag          Charge          X              Y              Z
 ---- ---------------- ---------- -------------- -------------- --------------
    1 P                   15.0000    -0.00000000    -0.00000000     0.00000053
    2 H                    1.0000    -0.00000000    -0.00000000     1.39292053
    3 H                    1.0000     0.92861239     0.92861239    -0.46430947
    4 H                    1.0000     0.33989572    -1.26850811    -0.46430947
    5 H                    1.0000    -1.26850811     0.33989572    -0.46430947

         Total DFT energy =     -343.495984105398

                       DFT Final Molecular Orbital Analysis
                       ------------------------------------

 Vector    1  Occ=2.000000D+00  E=-7.690610D+01  Symmetry=a1

 Vector   50  Occ=0.000000D+00  E= 6.444372D-01  Symmetry=e

 Vector   51  Occ=0.000000D+00  E= 6.444384D-01  Symmetry=a1

 Vector   52  Occ=0.000000D+00  E= 9.402269D-01  Symmetry=a1

 Vector   53  Occ=0.000000D+00  E= 9.402281D-01  Symmetry=e

 Vector   54  Occ=0.000000D+00  E= 9.402281D-01  Symmetry=e

 Vector   55  Occ=0.000000D+00  E= 9.472654D-01  Symmetry=a1

 Vector   56  Occ=0.000000D+00  E= 1.075046D+00  Symmetry=e

 Vector   57  Occ=0.000000D+00  E= 1.075046D+00  Symmetry=e

 Vector   58  Occ=0.000000D+00  E= 1.075048D+00  Symmetry=a2

 Vector   59  Occ=0.000000D+00  E= 1.329508D+00  Symmetry=a1

 Vector   60  Occ=0.000000D+00  E= 1.329511D+00  Symmetry=e

 Vector   61  Occ=0.000000D+00  E= 1.329511D+00  Symmetry=e

 Vector   62  Occ=0.000000D+00  E= 1.529358D+00  Symmetry=a1

 Vector   63  Occ=0.000000D+00  E= 1.610820D+00  Symmetry=a1

 Vector   64  Occ=0.000000D+00  E= 1.610823D+00  Symmetry=e

 Vector   65  Occ=0.000000D+00  E= 1.610823D+00  Symmetry=e

 Vector   66  Occ=0.000000D+00  E= 1.643664D+00  Symmetry=e

 Vector   67  Occ=0.000000D+00  E= 1.643664D+00  Symmetry=e

 Vector   68  Occ=0.000000D+00  E= 1.826126D+00  Symmetry=a2

 Vector   69  Occ=0.000000D+00  E= 1.826129D+00  Symmetry=e

 Vector   70  Occ=0.000000D+00  E= 1.826129D+00  Symmetry=e

 Vector   71  Occ=0.000000D+00  E= 1.900046D+00  Symmetry=a1

 Vector   72  Occ=0.000000D+00  E= 1.900048D+00  Symmetry=e

 Vector   73  Occ=0.000000D+00  E= 1.900048D+00  Symmetry=e

 Vector   74  Occ=0.000000D+00  E= 1.946469D+00  Symmetry=a1

 Vector   75  Occ=0.000000D+00  E= 2.179675D+00  Symmetry=e

 Vector   76  Occ=0.000000D+00  E= 2.179675D+00  Symmetry=e

 Vector   77  Occ=0.000000D+00  E= 2.179679D+00  Symmetry=a1

 Vector   78  Occ=0.000000D+00  E= 2.470722D+00  Symmetry=a1

 Vector   79  Occ=0.000000D+00  E= 2.537564D+00  Symmetry=a1

 Vector   80  Occ=0.000000D+00  E= 2.537567D+00  Symmetry=e

 Vector   81  Occ=0.000000D+00  E= 2.537567D+00  Symmetry=e

 Vector   82  Occ=0.000000D+00  E= 2.762147D+00  Symmetry=e

 Vector   83  Occ=0.000000D+00  E= 2.762147D+00  Symmetry=e

 Vector   84  Occ=0.000000D+00  E= 2.763637D+00  Symmetry=e

 Vector   85  Occ=0.000000D+00  E= 2.763637D+00  Symmetry=e

 Vector   86  Occ=0.000000D+00  E= 2.763639D+00  Symmetry=a2

 Vector   87  Occ=0.000000D+00  E= 3.082840D+00  Symmetry=e

 Vector   88  Occ=0.000000D+00  E= 3.082840D+00  Symmetry=e

 Vector   89  Occ=0.000000D+00  E= 3.082844D+00  Symmetry=a1

 Vector   90  Occ=0.000000D+00  E= 3.156386D+00  Symmetry=a1

 Vector   91  Occ=0.000000D+00  E= 3.256874D+00  Symmetry=e

 Vector   92  Occ=0.000000D+00  E= 3.256874D+00  Symmetry=e

 Vector   93  Occ=0.000000D+00  E= 3.461523D+00  Symmetry=a1

 Vector   94  Occ=0.000000D+00  E= 3.461523D+00  Symmetry=e

 Vector   95  Occ=0.000000D+00  E= 3.461523D+00  Symmetry=e

 Vector   96  Occ=0.000000D+00  E= 3.653259D+00  Symmetry=a2

 Vector   97  Occ=0.000000D+00  E= 3.653266D+00  Symmetry=e

 Vector   98  Occ=0.000000D+00  E= 3.653266D+00  Symmetry=e

 Vector   99  Occ=0.000000D+00  E= 3.807161D+00  Symmetry=a1

 Vector  100  Occ=0.000000D+00  E= 3.908417D+00  Symmetry=a1

 Vector  101  Occ=0.000000D+00  E= 3.908418D+00  Symmetry=e

 Vector  102  Occ=0.000000D+00  E= 3.908418D+00  Symmetry=e

 Vector  103  Occ=0.000000D+00  E= 4.274011D+00  Symmetry=a1

 Vector  104  Occ=0.000000D+00  E= 4.341454D+00  Symmetry=e

 Vector  105  Occ=0.000000D+00  E= 4.341454D+00  Symmetry=e

 Vector  106  Occ=0.000000D+00  E= 4.353321D+00  Symmetry=a1

 Vector  107  Occ=0.000000D+00  E= 4.353321D+00  Symmetry=e

 Vector  108  Occ=0.000000D+00  E= 4.353321D+00  Symmetry=e

 Vector  109  Occ=0.000000D+00  E= 5.466280D+00  Symmetry=a1

 Vector  110  Occ=0.000000D+00  E= 5.466284D+00  Symmetry=e

 Vector  111  Occ=0.000000D+00  E= 5.466284D+00  Symmetry=e

 Vector  112  Occ=0.000000D+00  E= 8.360454D+00  Symmetry=a1

 Vector  113  Occ=0.000000D+00  E= 8.489525D+00  Symmetry=e

 Vector  114  Occ=0.000000D+00  E= 8.489525D+00  Symmetry=e

 Vector  115  Occ=0.000000D+00  E= 8.489544D+00  Symmetry=a2

 Vector  116  Occ=0.000000D+00  E= 8.513913D+00  Symmetry=e

 Vector  117  Occ=0.000000D+00  E= 8.513913D+00  Symmetry=e

 Vector  118  Occ=0.000000D+00  E= 8.600306D+00  Symmetry=e

 Vector  119  Occ=0.000000D+00  E= 8.600306D+00  Symmetry=e

 Vector  120  Occ=0.000000D+00  E= 8.600328D+00  Symmetry=a1

 Vector  121  Occ=0.000000D+00  E= 9.392268D+00  Symmetry=a1

 Vector  122  Occ=0.000000D+00  E= 9.392309D+00  Symmetry=e

 Vector  123  Occ=0.000000D+00  E= 9.392309D+00  Symmetry=e

 Vector  124  Occ=0.000000D+00  E= 9.430868D+00  Symmetry=a1

 Vector  125  Occ=0.000000D+00  E= 1.462496D+01  Symmetry=a1

 Vector  126  Occ=0.000000D+00  E= 1.462496D+01  Symmetry=e

 Vector  127  Occ=0.000000D+00  E= 1.462496D+01  Symmetry=e

 Vector  128  Occ=0.000000D+00  E= 2.102398D+01  Symmetry=a1

 Vector  129  Occ=0.000000D+00  E= 1.884437D+02  Symmetry=a1

     Multipole analysis of the density
     ---------------------------------

     L   x y z        total         alpha         beta         nuclear
     -   - - -        -----         -----         ----         -------
     0   0 0 0      1.000000     -9.000000     -9.000000     19.000000

     1   1 0 0      0.000000      0.000000      0.000000      0.000000
     1   0 1 0      0.000000     -0.000000     -0.000000      0.000000
     1   0 0 1      0.000003      0.000001      0.000001     -0.000000

     2   2 0 0     -7.914050     -8.576130     -8.576130      9.238211
     2   1 1 0     -0.000000     -0.000000     -0.000000      0.000000
     2   1 0 1     -0.000000      0.000000      0.000000     -0.000000
     2   0 2 0     -7.914050     -8.576130     -8.576130      9.238211
     2   0 1 1     -0.000000      0.000000      0.000000     -0.000000

 Total times  cpu:        4.5s     wall:        5.7s
