 Output coordinates in angstroms (scale by  1.889725989 to convert to a.u.)

  No.       Tag          Charge          X              Y              Z
 ---- ---------------- ---------- -------------- -------------- --------------
    1 P                   15.0000     0.00000000     0.00000000     0.12461833
    2 H                    1.0000    -0.84898519    -0.84898519    -0.62309167
    3 H                    1.0000    -0.31075015     1.15973534    -0.62309167
    4 H                    1.0000     1.15973534    -0.31075015    -0.62309167

         Total DFT energy =     -343.183856709716

                       DFT Final Molecular Orbital Analysis
                       ------------------------------------

 Vector    1  Occ=2.000000D+00  E=-7.657900D+01  Symmetry=a1

 Vector   31  Occ=0.000000D+00  E= 4.215006D-01  Symmetry=a2

 Vector   32  Occ=0.000000D+00  E= 4.287489D-01  Symmetry=a1

 Vector   33  Occ=0.000000D+00  E= 4.434998D-01  Symmetry=e

 Vector   34  Occ=0.000000D+00  E= 4.434998D-01  Symmetry=e

 Vector   35  Occ=0.000000D+00  E= 6.094330D-01  Symmetry=a1

 Vector   36  Occ=0.000000D+00  E= 6.176207D-01  Symmetry=e

 Vector   37  Occ=0.000000D+00  E= 6.176207D-01  Symmetry=e

 Vector   38  Occ=0.000000D+00  E= 7.395757D-01  Symmetry=a1

 Vector   39  Occ=0.000000D+00  E= 7.405723D-01  Symmetry=e

 Vector   40  Occ=0.000000D+00  E= 7.405723D-01  Symmetry=e

 Vector   41  Occ=0.000000D+00  E= 8.267013D-01  Symmetry=e

 Vector   42  Occ=0.000000D+00  E= 8.267013D-01  Symmetry=e

 Vector   43  Occ=0.000000D+00  E= 8.520047D-01  Symmetry=a1

 Vector   44  Occ=0.000000D+00  E= 9.112106D-01  Symmetry=e

 Vector   45  Occ=0.000000D+00  E= 9.112106D-01  Symmetry=e

 Vector   46  Occ=0.000000D+00  E= 1.039205D+00  Symmetry=a1

 Vector   47  Occ=0.000000D+00  E= 1.144793D+00  Symmetry=e

 Vector   48  Occ=0.000000D+00  E= 1.144793D+00  Symmetry=e

 Vector   49  Occ=0.000000D+00  E= 1.206881D+00  Symmetry=a1

 Vector   50  Occ=0.000000D+00  E= 1.303749D+00  Symmetry=a1

 Vector   51  Occ=0.000000D+00  E= 1.366879D+00  Symmetry=a2

 Vector   52  Occ=0.000000D+00  E= 1.415476D+00  Symmetry=e

 Vector   53  Occ=0.000000D+00  E= 1.415476D+00  Symmetry=e

 Vector   54  Occ=0.000000D+00  E= 1.609341D+00  Symmetry=e

 Vector   55  Occ=0.000000D+00  E= 1.609341D+00  Symmetry=e

 Vector   56  Occ=0.000000D+00  E= 1.719813D+00  Symmetry=a1

 Vector   57  Occ=0.000000D+00  E= 1.894906D+00  Symmetry=a2

 Vector   58  Occ=0.000000D+00  E= 1.914055D+00  Symmetry=a1

 Vector   59  Occ=0.000000D+00  E= 1.926714D+00  Symmetry=e

 Vector   60  Occ=0.000000D+00  E= 1.926714D+00  Symmetry=e

 Vector   61  Occ=0.000000D+00  E= 1.975475D+00  Symmetry=e

 Vector   62  Occ=0.000000D+00  E= 1.975475D+00  Symmetry=e

 Vector   63  Occ=0.000000D+00  E= 2.135505D+00  Symmetry=a1

 Vector   64  Occ=0.000000D+00  E= 2.172716D+00  Symmetry=e

 Vector   65  Occ=0.000000D+00  E= 2.172716D+00  Symmetry=e

 Vector   66  Occ=0.000000D+00  E= 2.420765D+00  Symmetry=e

 Vector   67  Occ=0.000000D+00  E= 2.420765D+00  Symmetry=e

 Vector   68  Occ=0.000000D+00  E= 2.686115D+00  Symmetry=a1

 Vector   69  Occ=0.000000D+00  E= 2.773551D+00  Symmetry=e

 Vector   70  Occ=0.000000D+00  E= 2.773551D+00  Symmetry=e

 Vector   71  Occ=0.000000D+00  E= 2.808614D+00  Symmetry=a1

 Vector   72  Occ=0.000000D+00  E= 3.033688D+00  Symmetry=e

 Vector   73  Occ=0.000000D+00  E= 3.033688D+00  Symmetry=e

 Vector   74  Occ=0.000000D+00  E= 3.185276D+00  Symmetry=a2

 Vector   75  Occ=0.000000D+00  E= 3.188101D+00  Symmetry=e

 Vector   76  Occ=0.000000D+00  E= 3.188101D+00  Symmetry=e

 Vector   77  Occ=0.000000D+00  E= 3.372919D+00  Symmetry=a1

 Vector   78  Occ=0.000000D+00  E= 3.419195D+00  Symmetry=a1

 Vector   79  Occ=0.000000D+00  E= 3.534519D+00  Symmetry=e

 Vector   80  Occ=0.000000D+00  E= 3.534519D+00  Symmetry=e

 Vector   81  Occ=0.000000D+00  E= 3.559528D+00  Symmetry=a1

 Vector   82  Occ=0.000000D+00  E= 3.559870D+00  Symmetry=e

 Vector   83  Occ=0.000000D+00  E= 3.559870D+00  Symmetry=e

 Vector   84  Occ=0.000000D+00  E= 3.577694D+00  Symmetry=a2

 Vector   85  Occ=0.000000D+00  E= 4.089878D+00  Symmetry=a1

 Vector   86  Occ=0.000000D+00  E= 4.106304D+00  Symmetry=e

 Vector   87  Occ=0.000000D+00  E= 4.106304D+00  Symmetry=e

 Vector   88  Occ=0.000000D+00  E= 4.585692D+00  Symmetry=e

 Vector   89  Occ=0.000000D+00  E= 4.585692D+00  Symmetry=e

 Vector   90  Occ=0.000000D+00  E= 4.622041D+00  Symmetry=a1

 Vector   91  Occ=0.000000D+00  E= 4.682146D+00  Symmetry=a1

 Vector   92  Occ=0.000000D+00  E= 4.768742D+00  Symmetry=e

 Vector   93  Occ=0.000000D+00  E= 4.768742D+00  Symmetry=e

 Vector   94  Occ=0.000000D+00  E= 5.459065D+00  Symmetry=e

 Vector   95  Occ=0.000000D+00  E= 5.459065D+00  Symmetry=e

 Vector   96  Occ=0.000000D+00  E= 8.641067D+00  Symmetry=a1

 Vector   97  Occ=0.000000D+00  E= 8.659011D+00  Symmetry=a2

 Vector   98  Occ=0.000000D+00  E= 8.703872D+00  Symmetry=e

 Vector   99  Occ=0.000000D+00  E= 8.703872D+00  Symmetry=e

 Vector  100  Occ=0.000000D+00  E= 8.847395D+00  Symmetry=a1

 Vector  101  Occ=0.000000D+00  E= 8.851875D+00  Symmetry=e

 Vector  102  Occ=0.000000D+00  E= 8.851875D+00  Symmetry=e

 Vector  103  Occ=0.000000D+00  E= 9.479261D+00  Symmetry=e

 Vector  104  Occ=0.000000D+00  E= 9.479261D+00  Symmetry=e

 Vector  105  Occ=0.000000D+00  E= 9.755912D+00  Symmetry=a1

 Vector  106  Occ=0.000000D+00  E= 1.474792D+01  Symmetry=a1

 Vector  107  Occ=0.000000D+00  E= 1.481262D+01  Symmetry=e

 Vector  108  Occ=0.000000D+00  E= 1.481262D+01  Symmetry=e

 Vector  109  Occ=0.000000D+00  E= 2.132589D+01  Symmetry=a1

 Vector  110  Occ=0.000000D+00  E= 1.887381D+02  Symmetry=a1

     Multipole analysis of the density
     ---------------------------------

     L   x y z        total         alpha         beta         nuclear
     -   - - -        -----         -----         ----         -------
     0   0 0 0     -0.000000     -9.000000     -9.000000     18.000000

     1   1 0 0     -0.000000     -0.000000     -0.000000      0.000000
     1   0 1 0     -0.000000     -0.000000     -0.000000      0.000000
     1   0 0 1     -0.260410     -0.130205     -0.130205      0.000000

     2   2 0 0    -10.910103     -9.315957     -9.315957      7.721811
     2   1 1 0     -0.000000      0.000000      0.000000     -0.000000
     2   1 0 1      0.000000      0.000000      0.000000     -0.000000
     2   0 2 0    -10.910103     -9.315957     -9.315957      7.721811
     2   0 1 1      0.000000      0.000000      0.000000     -0.000000

 Total times  cpu:        1.7s     wall:        2.5s
