 Output coordinates in angstroms (scale by  1.889725989 to convert to a.u.)

  No.       Tag          Charge          X              Y              Z
 ---- ---------------- ---------- -------------- -------------- --------------
    1 Si                  14.0000     0.00000000     0.00000000     0.00000000
    2 H                    1.0000     0.85613000    -0.85613000     0.85613000
    3 H                    1.0000    -0.85613000     0.85613000     0.85613000
    4 H                    1.0000     0.85613000     0.85613000    -0.85613000
    5 H                    1.0000    -0.85613000    -0.85613000    -0.85613000

         Total DFT energy =     -291.923907676413

                       DFT Final Molecular Orbital Analysis
                       ------------------------------------

 Vector    1  Occ=2.000000D+00  E=-6.565825D+01  Symmetry=a1

 Vector   50  Occ=0.000000D+00  E= 7.815530D-01  Symmetry=e

 Vector   51  Occ=0.000000D+00  E= 7.815530D-01  Symmetry=e

 Vector   52  Occ=0.000000D+00  E= 9.886352D-01  Symmetry=a1

 Vector   53  Occ=0.000000D+00  E= 1.058991D+00  Symmetry=t2

 Vector   54  Occ=0.000000D+00  E= 1.058991D+00  Symmetry=t2

 Vector   55  Occ=0.000000D+00  E= 1.058991D+00  Symmetry=t2

 Vector   56  Occ=0.000000D+00  E= 1.111743D+00  Symmetry=t1

 Vector   57  Occ=0.000000D+00  E= 1.111743D+00  Symmetry=t1

 Vector   58  Occ=0.000000D+00  E= 1.111743D+00  Symmetry=t1

 Vector   59  Occ=0.000000D+00  E= 1.309502D+00  Symmetry=t2

 Vector   60  Occ=0.000000D+00  E= 1.309502D+00  Symmetry=t2

 Vector   61  Occ=0.000000D+00  E= 1.309502D+00  Symmetry=t2

 Vector   62  Occ=0.000000D+00  E= 1.524007D+00  Symmetry=a1

 Vector   63  Occ=0.000000D+00  E= 1.739488D+00  Symmetry=t2

 Vector   64  Occ=0.000000D+00  E= 1.739488D+00  Symmetry=t2

 Vector   65  Occ=0.000000D+00  E= 1.739488D+00  Symmetry=t2

 Vector   66  Occ=0.000000D+00  E= 1.943569D+00  Symmetry=a1

 Vector   67  Occ=0.000000D+00  E= 1.969415D+00  Symmetry=t2

 Vector   68  Occ=0.000000D+00  E= 1.969415D+00  Symmetry=t2

 Vector   69  Occ=0.000000D+00  E= 1.969415D+00  Symmetry=t2

 Vector   70  Occ=0.000000D+00  E= 1.990213D+00  Symmetry=t1

 Vector   71  Occ=0.000000D+00  E= 1.990213D+00  Symmetry=t1

 Vector   72  Occ=0.000000D+00  E= 1.990213D+00  Symmetry=t1

 Vector   73  Occ=0.000000D+00  E= 1.999062D+00  Symmetry=e

 Vector   74  Occ=0.000000D+00  E= 1.999062D+00  Symmetry=e

 Vector   75  Occ=0.000000D+00  E= 2.158375D+00  Symmetry=t2

 Vector   76  Occ=0.000000D+00  E= 2.158375D+00  Symmetry=t2

 Vector   77  Occ=0.000000D+00  E= 2.158375D+00  Symmetry=t2

 Vector   78  Occ=0.000000D+00  E= 2.508433D+00  Symmetry=t2

 Vector   79  Occ=0.000000D+00  E= 2.508433D+00  Symmetry=t2

 Vector   80  Occ=0.000000D+00  E= 2.508433D+00  Symmetry=t2

 Vector   81  Occ=0.000000D+00  E= 2.606956D+00  Symmetry=a1

 Vector   82  Occ=0.000000D+00  E= 2.884369D+00  Symmetry=a1

 Vector   83  Occ=0.000000D+00  E= 3.046786D+00  Symmetry=t1

 Vector   84  Occ=0.000000D+00  E= 3.046786D+00  Symmetry=t1

 Vector   85  Occ=0.000000D+00  E= 3.046786D+00  Symmetry=t1

 Vector   86  Occ=0.000000D+00  E= 3.049206D+00  Symmetry=e

 Vector   87  Occ=0.000000D+00  E= 3.049206D+00  Symmetry=e

 Vector   88  Occ=0.000000D+00  E= 3.253963D+00  Symmetry=e

 Vector   89  Occ=0.000000D+00  E= 3.253963D+00  Symmetry=e

 Vector   90  Occ=0.000000D+00  E= 3.300600D+00  Symmetry=t2

 Vector   91  Occ=0.000000D+00  E= 3.300600D+00  Symmetry=t2

 Vector   92  Occ=0.000000D+00  E= 3.300600D+00  Symmetry=t2

 Vector   93  Occ=0.000000D+00  E= 3.572842D+00  Symmetry=t2

 Vector   94  Occ=0.000000D+00  E= 3.572842D+00  Symmetry=t2

 Vector   95  Occ=0.000000D+00  E= 3.572842D+00  Symmetry=t2

 Vector   96  Occ=0.000000D+00  E= 3.721304D+00  Symmetry=t1

 Vector   97  Occ=0.000000D+00  E= 3.721304D+00  Symmetry=t1

 Vector   98  Occ=0.000000D+00  E= 3.721304D+00  Symmetry=t1

 Vector   99  Occ=0.000000D+00  E= 3.849338D+00  Symmetry=a1

 Vector  100  Occ=0.000000D+00  E= 4.107190D+00  Symmetry=t2

 Vector  101  Occ=0.000000D+00  E= 4.107190D+00  Symmetry=t2

 Vector  102  Occ=0.000000D+00  E= 4.107190D+00  Symmetry=t2

 Vector  103  Occ=0.000000D+00  E= 4.164694D+00  Symmetry=e

 Vector  104  Occ=0.000000D+00  E= 4.164694D+00  Symmetry=e

 Vector  105  Occ=0.000000D+00  E= 4.479254D+00  Symmetry=t2

 Vector  106  Occ=0.000000D+00  E= 4.479254D+00  Symmetry=t2

 Vector  107  Occ=0.000000D+00  E= 4.479254D+00  Symmetry=t2

 Vector  108  Occ=0.000000D+00  E= 4.569426D+00  Symmetry=a1

 Vector  109  Occ=0.000000D+00  E= 4.911507D+00  Symmetry=t2

 Vector  110  Occ=0.000000D+00  E= 4.911507D+00  Symmetry=t2

 Vector  111  Occ=0.000000D+00  E= 4.911507D+00  Symmetry=t2

 Vector  112  Occ=0.000000D+00  E= 7.448437D+00  Symmetry=a1

 Vector  113  Occ=0.000000D+00  E= 8.816701D+00  Symmetry=t1

 Vector  114  Occ=0.000000D+00  E= 8.816701D+00  Symmetry=t1

 Vector  115  Occ=0.000000D+00  E= 8.816701D+00  Symmetry=t1

 Vector  116  Occ=0.000000D+00  E= 8.866025D+00  Symmetry=t2

 Vector  117  Occ=0.000000D+00  E= 8.866025D+00  Symmetry=t2

 Vector  118  Occ=0.000000D+00  E= 8.866025D+00  Symmetry=t2

 Vector  119  Occ=0.000000D+00  E= 8.891295D+00  Symmetry=e

 Vector  120  Occ=0.000000D+00  E= 8.891295D+00  Symmetry=e

 Vector  121  Occ=0.000000D+00  E= 9.468795D+00  Symmetry=a1

 Vector  122  Occ=0.000000D+00  E= 9.515317D+00  Symmetry=t2

 Vector  123  Occ=0.000000D+00  E= 9.515317D+00  Symmetry=t2

 Vector  124  Occ=0.000000D+00  E= 9.515317D+00  Symmetry=t2

 Vector  125  Occ=0.000000D+00  E= 1.218440D+01  Symmetry=t2

 Vector  126  Occ=0.000000D+00  E= 1.218440D+01  Symmetry=t2

 Vector  127  Occ=0.000000D+00  E= 1.218440D+01  Symmetry=t2

 Vector  128  Occ=0.000000D+00  E= 1.780409D+01  Symmetry=a1

 Vector  129  Occ=0.000000D+00  E= 1.631152D+02  Symmetry=a1

     Multipole analysis of the density
     ---------------------------------

     L   x y z        total         alpha         beta         nuclear
     -   - - -        -----         -----         ----         -------
     0   0 0 0     -0.000000     -9.000000     -9.000000     18.000000

     1   1 0 0      0.000000      0.000000      0.000000      0.000000
     1   0 1 0     -0.000000     -0.000000     -0.000000      0.000000
     1   0 0 1      0.000000      0.000000      0.000000      0.000000

     2   2 0 0    -12.248994    -11.359382    -11.359382     10.469769
     2   1 1 0     -0.000000     -0.000000     -0.000000      0.000000
     2   1 0 1      0.000000      0.000000      0.000000      0.000000
     2   0 2 0    -12.248994    -11.359382    -11.359382     10.469769
     2   0 1 1     -0.000000     -0.000000     -0.000000      0.000000

 Total times  cpu:        1.7s     wall:        2.9s
