 Output coordinates in angstroms (scale by  1.889725989 to convert to a.u.)

  No.       Tag          Charge          X              Y              Z
 ---- ---------------- ---------- -------------- -------------- --------------
    1 Si                  14.0000    -0.00016878     0.17274319     0.00297868
    2 H                    1.0000     0.38227361    -1.65776771    -0.03773774
    3 H                    1.0000    -0.37864450    -1.65763525    -0.03964646
    4 H                    1.0000     0.02908427     0.36771692    -1.44663999
    5 H                    1.0000    -1.27612897     0.26303700     0.71578599
    6 H                    1.0000     1.24577855     0.26624442     0.76653671

         Total DFT energy =     -292.178464612653

                       DFT Final Molecular Orbital Analysis
                       ------------------------------------

 Vector    1  Occ=2.000000D+00  E=-6.596688D+01

 Vector   69  Occ=0.000000D+00  E= 1.294833D+00

 Vector   70  Occ=0.000000D+00  E= 1.419997D+00

 Vector   71  Occ=0.000000D+00  E= 1.491563D+00

 Vector   72  Occ=0.000000D+00  E= 1.510325D+00

 Vector   73  Occ=0.000000D+00  E= 1.520034D+00

 Vector   74  Occ=0.000000D+00  E= 1.652945D+00

 Vector   75  Occ=0.000000D+00  E= 1.656612D+00

 Vector   76  Occ=0.000000D+00  E= 1.697599D+00

 Vector   77  Occ=0.000000D+00  E= 1.703262D+00

 Vector   78  Occ=0.000000D+00  E= 1.708575D+00

 Vector   79  Occ=0.000000D+00  E= 1.730809D+00

 Vector   80  Occ=0.000000D+00  E= 1.817530D+00

 Vector   81  Occ=0.000000D+00  E= 1.841418D+00

 Vector   82  Occ=0.000000D+00  E= 1.886223D+00

 Vector   83  Occ=0.000000D+00  E= 1.994815D+00

 Vector   84  Occ=0.000000D+00  E= 2.003813D+00

 Vector   85  Occ=0.000000D+00  E= 2.023845D+00

 Vector   86  Occ=0.000000D+00  E= 2.092269D+00

 Vector   87  Occ=0.000000D+00  E= 2.236194D+00

 Vector   88  Occ=0.000000D+00  E= 2.253600D+00

 Vector   89  Occ=0.000000D+00  E= 2.269045D+00

 Vector   90  Occ=0.000000D+00  E= 2.270695D+00

 Vector   91  Occ=0.000000D+00  E= 2.497408D+00

 Vector   92  Occ=0.000000D+00  E= 2.641781D+00

 Vector   93  Occ=0.000000D+00  E= 2.708831D+00

 Vector   94  Occ=0.000000D+00  E= 2.770120D+00

 Vector   95  Occ=0.000000D+00  E= 2.895094D+00

 Vector   96  Occ=0.000000D+00  E= 2.914668D+00

 Vector   97  Occ=0.000000D+00  E= 2.958306D+00

 Vector   98  Occ=0.000000D+00  E= 2.975258D+00

 Vector   99  Occ=0.000000D+00  E= 3.016438D+00

 Vector  100  Occ=0.000000D+00  E= 3.077038D+00

 Vector  101  Occ=0.000000D+00  E= 3.091784D+00

 Vector  102  Occ=0.000000D+00  E= 3.146089D+00

 Vector  103  Occ=0.000000D+00  E= 3.224837D+00

 Vector  104  Occ=0.000000D+00  E= 3.230300D+00

 Vector  105  Occ=0.000000D+00  E= 3.296017D+00

 Vector  106  Occ=0.000000D+00  E= 3.310971D+00

 Vector  107  Occ=0.000000D+00  E= 3.323331D+00

 Vector  108  Occ=0.000000D+00  E= 3.421034D+00

 Vector  109  Occ=0.000000D+00  E= 3.509625D+00

 Vector  110  Occ=0.000000D+00  E= 3.686855D+00

 Vector  111  Occ=0.000000D+00  E= 3.833444D+00

 Vector  112  Occ=0.000000D+00  E= 3.865903D+00

 Vector  113  Occ=0.000000D+00  E= 3.871065D+00

 Vector  114  Occ=0.000000D+00  E= 3.902750D+00

 Vector  115  Occ=0.000000D+00  E= 3.932504D+00

 Vector  116  Occ=0.000000D+00  E= 4.108940D+00

 Vector  117  Occ=0.000000D+00  E= 4.179266D+00

 Vector  118  Occ=0.000000D+00  E= 4.206599D+00

 Vector  119  Occ=0.000000D+00  E= 4.308790D+00

 Vector  120  Occ=0.000000D+00  E= 4.455044D+00

 Vector  121  Occ=0.000000D+00  E= 4.511319D+00

 Vector  122  Occ=0.000000D+00  E= 4.534945D+00

 Vector  123  Occ=0.000000D+00  E= 4.555295D+00

 Vector  124  Occ=0.000000D+00  E= 4.563211D+00

 Vector  125  Occ=0.000000D+00  E= 4.679021D+00

 Vector  126  Occ=0.000000D+00  E= 5.135061D+00

 Vector  127  Occ=0.000000D+00  E= 7.199695D+00

 Vector  128  Occ=0.000000D+00  E= 8.372959D+00

 Vector  129  Occ=0.000000D+00  E= 8.541954D+00

 Vector  130  Occ=0.000000D+00  E= 8.558332D+00

 Vector  131  Occ=0.000000D+00  E= 8.581988D+00

 Vector  132  Occ=0.000000D+00  E= 8.592548D+00

 Vector  133  Occ=0.000000D+00  E= 8.604485D+00

 Vector  134  Occ=0.000000D+00  E= 8.624691D+00

 Vector  135  Occ=0.000000D+00  E= 8.744077D+00

 Vector  136  Occ=0.000000D+00  E= 8.849925D+00

 Vector  137  Occ=0.000000D+00  E= 8.876922D+00

 Vector  138  Occ=0.000000D+00  E= 8.939451D+00

 Vector  139  Occ=0.000000D+00  E= 9.265128D+00

 Vector  140  Occ=0.000000D+00  E= 9.273788D+00

 Vector  141  Occ=0.000000D+00  E= 9.275428D+00

 Vector  142  Occ=0.000000D+00  E= 1.031703D+01

 Vector  143  Occ=0.000000D+00  E= 1.137647D+01

 Vector  144  Occ=0.000000D+00  E= 1.194451D+01

 Vector  145  Occ=0.000000D+00  E= 1.195515D+01

 Vector  146  Occ=0.000000D+00  E= 1.434839D+01

 Vector  147  Occ=0.000000D+00  E= 1.751935D+01

 Vector  148  Occ=0.000000D+00  E= 1.628323D+02

     Multipole analysis of the density
     ---------------------------------

     L   x y z        total         alpha         beta         nuclear
     -   - - -        -----         -----         ----         -------
     0   0 0 0      1.000000     -9.000000     -9.000000     19.000000

     1   1 0 0      0.000115      0.000057      0.000057      0.000000
     1   0 1 0     -0.525189     -0.262595     -0.262595      0.000000
     1   0 0 1     -0.006525     -0.003263     -0.003263     -0.000000

     2   2 0 0     -9.170807    -10.782665    -10.782665     12.394523
     2   1 1 0     -0.006069     -0.003450     -0.003450      0.000831
     2   1 0 1      0.000484      0.000235      0.000235      0.000014
     2   0 2 0     -5.587958    -13.844640    -13.844640     22.101323
     2   0 1 1      0.114245      0.064455      0.064455     -0.014664

 Total times  cpu:        3.1s     wall:        4.6s
