 Output coordinates in angstroms (scale by  1.889725989 to convert to a.u.)

  No.       Tag          Charge          X              Y              Z
 ---- ---------------- ---------- -------------- -------------- --------------
    1 C                    6.0000     0.00000000     0.00000000     0.00000000
    2 H                    1.0000     0.00000000     0.00000000     1.07732000
    3 H                    1.0000     0.93298000     0.00000000    -0.53866000
    4 H                    1.0000    -0.93298000     0.00000000    -0.53866000

         Total DFT energy =      -39.851007943371

                    DFT Final Alpha Molecular Orbital Analysis
                    ------------------------------------------

 Vector    1  Occ=1.000000D+00  E=-1.002717D+01

 Vector    2  Occ=1.000000D+00  E=-6.434898D-01

 Vector    3  Occ=1.000000D+00  E=-3.865818D-01

 Vector    4  Occ=1.000000D+00  E=-3.865816D-01

 Vector    5  Occ=1.000000D+00  E=-2.042803D-01

 Vector    6  Occ=0.000000D+00  E=-1.431863D-02

 Vector    7  Occ=0.000000D+00  E= 2.438643D-02

 Vector    8  Occ=0.000000D+00  E= 2.438785D-02

 Vector    9  Occ=0.000000D+00  E= 5.954095D-02

 Vector   10  Occ=0.000000D+00  E= 8.005465D-02

 Vector   11  Occ=0.000000D+00  E= 8.006075D-02

 Vector   12  Occ=0.000000D+00  E= 1.046478D-01

 Vector   13  Occ=0.000000D+00  E= 1.206264D-01

 Vector   14  Occ=0.000000D+00  E= 1.732669D-01

 Vector   15  Occ=0.000000D+00  E= 1.732694D-01

 Vector   16  Occ=0.000000D+00  E= 2.872425D-01

 Vector   17  Occ=0.000000D+00  E= 2.872430D-01

 Vector   18  Occ=0.000000D+00  E= 3.059567D-01

 Vector   19  Occ=0.000000D+00  E= 3.059580D-01

 Vector   20  Occ=0.000000D+00  E= 3.360567D-01

 Vector   21  Occ=0.000000D+00  E= 4.389059D-01

 Vector   22  Occ=0.000000D+00  E= 4.876604D-01

 Vector   23  Occ=0.000000D+00  E= 4.892782D-01

 Vector   24  Occ=0.000000D+00  E= 5.051417D-01

 Vector    1  Occ=1.000000D+00  E=-1.001264D+01

 Vector    2  Occ=1.000000D+00  E=-6.084839D-01

 Vector    3  Occ=1.000000D+00  E=-3.796733D-01

 Vector    4  Occ=1.000000D+00  E=-3.796730D-01

 Vector    5  Occ=0.000000D+00  E=-9.243339D-02

 Vector    6  Occ=0.000000D+00  E=-4.692868D-03

 Vector    7  Occ=0.000000D+00  E= 2.993596D-02

 Vector    8  Occ=0.000000D+00  E= 2.993669D-02

 Vector    9  Occ=0.000000D+00  E= 8.553280D-02

 Vector   10  Occ=0.000000D+00  E= 8.553924D-02

 Vector   11  Occ=0.000000D+00  E= 9.633834D-02

 Vector   12  Occ=0.000000D+00  E= 1.209674D-01

 Vector   13  Occ=0.000000D+00  E= 1.461324D-01

 Vector   14  Occ=0.000000D+00  E= 1.839609D-01

 Vector   15  Occ=0.000000D+00  E= 1.839628D-01

 Vector   16  Occ=0.000000D+00  E= 3.076206D-01

 Vector   17  Occ=0.000000D+00  E= 3.076212D-01

 Vector   18  Occ=0.000000D+00  E= 3.146951D-01

 Vector   19  Occ=0.000000D+00  E= 3.146968D-01

 Vector   20  Occ=0.000000D+00  E= 3.724271D-01

 Vector   21  Occ=0.000000D+00  E= 4.625894D-01

 Vector   22  Occ=0.000000D+00  E= 4.864934D-01

 Vector   23  Occ=0.000000D+00  E= 5.114659D-01

     Multipole analysis of the density
     ---------------------------------

     L   x y z        total         alpha         beta         nuclear
     -   - - -        -----         -----         ----         -------
     0   0 0 0     -0.000000     -5.000000     -4.000000      9.000000

     1   1 0 0      0.000000      0.000000      0.000000      0.000000
     1   0 1 0      0.000000      0.000000     -0.000000      0.000000
     1   0 0 1      0.000000      0.000002     -0.000002      0.000000

     2   2 0 0     -5.446810     -6.171888     -5.491800      6.216878
     2   1 1 0     -0.000000     -0.000000      0.000000      0.000000
     2   1 0 1     -0.000000     -0.000000     -0.000000      0.000000
     2   0 2 0     -6.801451     -4.769965     -2.031486      0.000000
     2   0 1 1     -0.000000     -0.000000     -0.000000      0.000000

 Total times  cpu:       24.1s     wall:       25.4s
