 Output coordinates in angstroms (scale by  1.889725989 to convert to a.u.)

  No.       Tag          Charge          X              Y              Z
 ---- ---------------- ---------- -------------- -------------- --------------
    1 C                    6.0000     0.00000100     0.00000000     0.00000000
    2 H                    1.0000     0.00000100     0.00000000     1.08744000
    3 H                    1.0000     1.02525100     0.00000000    -0.36248000
    4 H                    1.0000    -0.51262900     0.88789000    -0.36248000
    5 H                    1.0000    -0.51262900    -0.88789000    -0.36248000

         Total DFT energy =      -40.527866131613

                       DFT Final Molecular Orbital Analysis
                       ------------------------------------

 Vector    1  Occ=2.000000D+00  E=-9.997252D+00

 Vector    2  Occ=2.000000D+00  E=-6.493951D-01

 Vector    3  Occ=2.000000D+00  E=-3.585357D-01

 Vector    4  Occ=2.000000D+00  E=-3.585347D-01

 Vector    5  Occ=2.000000D+00  E=-3.585338D-01

 Vector    6  Occ=0.000000D+00  E=-1.790204D-02

 Vector    7  Occ=0.000000D+00  E= 2.425716D-02

 Vector    8  Occ=0.000000D+00  E= 2.425815D-02

 Vector    9  Occ=0.000000D+00  E= 2.425893D-02

 Vector   10  Occ=0.000000D+00  E= 7.492685D-02

 Vector   11  Occ=0.000000D+00  E= 7.492795D-02

 Vector   12  Occ=0.000000D+00  E= 7.492855D-02

 Vector   13  Occ=0.000000D+00  E= 1.023476D-01

 Vector   14  Occ=0.000000D+00  E= 1.746293D-01

 Vector   15  Occ=0.000000D+00  E= 1.746302D-01

 Vector   16  Occ=0.000000D+00  E= 1.746318D-01

 Vector   17  Occ=0.000000D+00  E= 2.309589D-01

 Vector   18  Occ=0.000000D+00  E= 2.714300D-01

 Vector   19  Occ=0.000000D+00  E= 2.714306D-01

 Vector   20  Occ=0.000000D+00  E= 2.942968D-01

 Vector   21  Occ=0.000000D+00  E= 2.942972D-01

 Vector   22  Occ=0.000000D+00  E= 2.942977D-01

 Vector   23  Occ=0.000000D+00  E= 4.717220D-01

 Vector   24  Occ=0.000000D+00  E= 5.040618D-01

     Multipole analysis of the density
     ---------------------------------

     L   x y z        total         alpha         beta         nuclear
     -   - - -        -----         -----         ----         -------
     0   0 0 0     -0.000000     -5.000000     -5.000000     10.000000

     1   1 0 0     -0.000001     -0.000000     -0.000000      0.000000
     1   0 1 0      0.000000      0.000000      0.000000      0.000000
     1   0 0 1      0.000001      0.000001      0.000001     -0.000000

     2   2 0 0     -6.310341     -5.970449     -5.970449      5.630556
     2   1 1 0     -0.000000     -0.000000     -0.000000      0.000000
     2   1 0 1      0.000004     -0.000005     -0.000005      0.000013
     2   0 2 0     -6.310363     -5.970425     -5.970425      5.630487
     2   0 1 1     -0.000000     -0.000000     -0.000000      0.000000

 Total times  cpu:       28.1s     wall:       30.6s
