 Output coordinates in angstroms (scale by  1.889725989 to convert to a.u.)

  No.       Tag          Charge          X              Y              Z
 ---- ---------------- ---------- -------------- -------------- --------------
    1 H                    1.0000     0.00000000     0.00000000     0.00000000

         Total DFT energy =       -0.499978316721

                    DFT Final Alpha Molecular Orbital Analysis
                    ------------------------------------------

 Vector    1  Occ=1.000000D+00  E=-2.886499D-01

 Vector    2  Occ=0.000000D+00  E= 3.266727D-02

 Vector    3  Occ=0.000000D+00  E= 2.396914D-01

 Vector    4  Occ=0.000000D+00  E= 2.396914D-01

 Vector    5  Occ=0.000000D+00  E= 2.396914D-01

 Vector    6  Occ=0.000000D+00  E= 3.611946D-01

 Vector    7  Occ=0.000000D+00  E= 1.736198D+00

 Vector    8  Occ=0.000000D+00  E= 1.736198D+00

 Vector    9  Occ=0.000000D+00  E= 1.736198D+00

 Vector   10  Occ=0.000000D+00  E= 1.747978D+00

 Vector   11  Occ=0.000000D+00  E= 3.120287D+00

 Vector    1  Occ=0.000000D+00  E=-4.998180D-01

 Vector    2  Occ=0.000000D+00  E=-1.188963D-01

 Vector    3  Occ=0.000000D+00  E= 6.725206D-03

 Vector    4  Occ=0.000000D+00  E= 6.725206D-03

 Vector    5  Occ=0.000000D+00  E= 6.725206D-03

 Vector    6  Occ=0.000000D+00  E= 1.655019D-01

 Vector    7  Occ=0.000000D+00  E= 1.379600D+00

 Vector    8  Occ=0.000000D+00  E= 1.379600D+00

 Vector    9  Occ=0.000000D+00  E= 1.379600D+00

 Vector   10  Occ=0.000000D+00  E= 1.437489D+00

 Vector   11  Occ=0.000000D+00  E= 2.648923D+00

 Total times  cpu:        0.4s     wall:        0.9s
