 Output coordinates in angstroms (scale by  1.889725989 to convert to a.u.)

  No.       Tag          Charge          X              Y              Z
 ---- ---------------- ---------- -------------- -------------- --------------
    1 H                    1.0000     0.00000000     0.00000000    -0.37094000
    2 H                    1.0000     0.00000000     0.00000000     0.37094000

         Total DFT energy =       -1.182359667944

                       DFT Final Molecular Orbital Analysis
                       ------------------------------------

 Vector    1  Occ=2.000000D+00  E=-4.000216D-01

 Vector    2  Occ=0.000000D+00  E= 1.168519D-02

 Vector    3  Occ=0.000000D+00  E= 1.923244D-02

 Vector    4  Occ=0.000000D+00  E= 1.304667D-01

 Vector    5  Occ=0.000000D+00  E= 2.253086D-01

 Vector    6  Occ=0.000000D+00  E= 2.253086D-01

 Vector    7  Occ=0.000000D+00  E= 3.160059D-01

 Vector    8  Occ=0.000000D+00  E= 4.328967D-01

 Vector    9  Occ=0.000000D+00  E= 4.641971D-01

 Vector   10  Occ=0.000000D+00  E= 4.641971D-01

 Vector   11  Occ=0.000000D+00  E= 4.749547D-01

 Vector   12  Occ=0.000000D+00  E= 9.593330D-01

     Multipole analysis of the density
     ---------------------------------

     L   x y z        total         alpha         beta         nuclear
     -   - - -        -----         -----         ----         -------
     0   0 0 0     -0.000000     -1.000000     -1.000000      2.000000

     1   1 0 0     -0.000000     -0.000000     -0.000000      0.000000
     1   0 1 0      0.000000      0.000000      0.000000      0.000000
     1   0 0 1     -0.000000     -0.000000     -0.000000      0.000000

     2   2 0 0     -1.537808     -0.768904     -0.768904      0.000000
     2   1 1 0     -0.000000     -0.000000     -0.000000      0.000000
     2   1 0 1     -0.000000     -0.000000     -0.000000      0.000000
     2   0 2 0     -1.537808     -0.768904     -0.768904      0.000000
     2   0 1 1     -0.000000     -0.000000     -0.000000      0.000000

 Total times  cpu:        1.2s     wall:        1.8s
