 Output coordinates in angstroms (scale by  1.889725989 to convert to a.u.)

  No.       Tag          Charge          X              Y              Z
 ---- ---------------- ---------- -------------- -------------- --------------
    1 S                   16.0000     0.00000000     0.00000000     0.10251889
    2 H                    1.0000     0.00000000     0.96625000    -0.82015111
    3 H                    1.0000     0.00000000    -0.96625000    -0.82015111

         Total DFT energy =     -399.281937499746

                       DFT Final Molecular Orbital Analysis
                       ------------------------------------

 Vector    1  Occ=2.000000D+00  E=-8.840786D+01

 Vector    2  Occ=2.000000D+00  E=-7.763005D+00

 Vector    3  Occ=2.000000D+00  E=-5.724474D+00

 Vector    4  Occ=2.000000D+00  E=-5.720766D+00

 Vector    5  Occ=2.000000D+00  E=-5.713478D+00

 Vector    6  Occ=2.000000D+00  E=-6.979567D-01

 Vector    7  Occ=2.000000D+00  E=-4.182102D-01

 Vector    8  Occ=2.000000D+00  E=-3.415378D-01

 Vector    9  Occ=2.000000D+00  E=-2.372564D-01

 Vector   10  Occ=0.000000D+00  E=-3.093599D-02

 Vector   11  Occ=0.000000D+00  E=-1.633976D-02

 Vector   12  Occ=0.000000D+00  E= 2.180132D-02

 Vector   13  Occ=0.000000D+00  E= 3.261645D-02

 Vector   14  Occ=0.000000D+00  E= 3.946708D-02

 Vector   15  Occ=0.000000D+00  E= 6.799001D-02

 Vector   16  Occ=0.000000D+00  E= 8.411182D-02

 Vector   17  Occ=0.000000D+00  E= 8.971525D-02

 Vector   18  Occ=0.000000D+00  E= 1.533885D-01

 Vector   19  Occ=0.000000D+00  E= 1.806076D-01

 Vector   20  Occ=0.000000D+00  E= 1.883068D-01

 Vector   21  Occ=0.000000D+00  E= 2.551280D-01

 Vector   22  Occ=0.000000D+00  E= 2.679309D-01

 Vector   23  Occ=0.000000D+00  E= 2.811365D-01

 Vector   24  Occ=0.000000D+00  E= 2.984859D-01

 Vector   25  Occ=0.000000D+00  E= 3.309046D-01

 Vector   26  Occ=0.000000D+00  E= 4.043699D-01

 Vector   27  Occ=0.000000D+00  E= 4.404566D-01

 Vector   28  Occ=0.000000D+00  E= 4.521732D-01

 Vector   29  Occ=0.000000D+00  E= 4.650298D-01

 Vector   30  Occ=0.000000D+00  E= 4.996630D-01

 Vector   31  Occ=0.000000D+00  E= 5.351274D-01

     Multipole analysis of the density
     ---------------------------------

     L   x y z        total         alpha         beta         nuclear
     -   - - -        -----         -----         ----         -------
     0   0 0 0     -0.000000     -9.000000     -9.000000     18.000000

     1   1 0 0      0.000000      0.000000      0.000000      0.000000
     1   0 1 0      0.000000      0.000000      0.000000      0.000000
     1   0 0 1     -0.381425     -0.190712     -0.190712      0.000000

     2   2 0 0    -12.427018     -6.213509     -6.213509      0.000000
     2   1 1 0      0.000000      0.000000      0.000000      0.000000
     2   1 0 1     -0.000000     -0.000000     -0.000000      0.000000
     2   0 2 0     -9.214799     -7.941485     -7.941485      6.668170
     2   0 1 1     -0.000000     -0.000000     -0.000000      0.000000

 Total times  cpu:       15.2s     wall:       15.9s
