 Output coordinates in angstroms (scale by  1.889725989 to convert to a.u.)

  No.       Tag          Charge          X              Y              Z
 ---- ---------------- ---------- -------------- -------------- --------------
    1 F                    9.0000     0.00000000     0.00000000    -0.09153800
    2 H                    1.0000     0.00000000     0.00000000     0.82384200

         Total DFT energy =     -100.445158710869

                       DFT Final Molecular Orbital Analysis
                       ------------------------------------

 Vector    1  Occ=2.000000D+00  E=-2.444339D+01

 Vector    2  Occ=2.000000D+00  E=-1.138176D+00

 Vector    3  Occ=2.000000D+00  E=-5.030264D-01

 Vector    4  Occ=2.000000D+00  E=-3.599439D-01

 Vector    5  Occ=2.000000D+00  E=-3.599439D-01

 Vector    6  Occ=0.000000D+00  E=-3.321479D-02

 Vector    7  Occ=0.000000D+00  E= 9.680613D-02

 Vector    8  Occ=0.000000D+00  E= 1.827715D-01

 Vector    9  Occ=0.000000D+00  E= 1.864220D-01

 Vector   10  Occ=0.000000D+00  E= 1.864221D-01

 Vector   11  Occ=0.000000D+00  E= 2.712027D-01

 Vector   12  Occ=0.000000D+00  E= 3.679380D-01

 Vector   13  Occ=0.000000D+00  E= 3.679381D-01

 Vector   14  Occ=0.000000D+00  E= 3.981969D-01

 Vector   15  Occ=0.000000D+00  E= 6.907074D-01

     Multipole analysis of the density
     ---------------------------------

     L   x y z        total         alpha         beta         nuclear
     -   - - -        -----         -----         ----         -------
     0   0 0 0     -0.000000     -5.000000     -5.000000     10.000000

     1   1 0 0     -0.000000     -0.000000     -0.000000      0.000000
     1   0 1 0      0.000000      0.000000      0.000000      0.000000
     1   0 0 1      0.694916      0.347458      0.347458      0.000000

     2   2 0 0     -4.382072     -2.191036     -2.191036      0.000000
     2   1 1 0     -0.000000     -0.000000     -0.000000      0.000000
     2   1 0 1      0.000000      0.000000      0.000000      0.000000
     2   0 2 0     -4.382072     -2.191036     -2.191036      0.000000
     2   0 1 1     -0.000000     -0.000000     -0.000000      0.000000

 Total times  cpu:        4.0s     wall:        4.6s
