 Output coordinates in angstroms (scale by  1.889725989 to convert to a.u.)

  No.       Tag          Charge          X              Y              Z
 ---- ---------------- ---------- -------------- -------------- --------------
    1 S                   16.0000     0.00000000     0.00000000    -0.07883529
    2 H                    1.0000     0.00000000     0.00000000     1.26136471

         Total DFT energy =     -398.629895360886

                    DFT Final Alpha Molecular Orbital Analysis
                    ------------------------------------------

 Vector    1  Occ=1.000000D+00  E=-8.843316D+01

 Vector    2  Occ=1.000000D+00  E=-7.785364D+00

 Vector    3  Occ=1.000000D+00  E=-5.752792D+00

 Vector    4  Occ=1.000000D+00  E=-5.743657D+00

 Vector    5  Occ=1.000000D+00  E=-5.733975D+00

 Vector    6  Occ=1.000000D+00  E=-6.912592D-01

 Vector    7  Occ=1.000000D+00  E=-3.840804D-01

 Vector    8  Occ=1.000000D+00  E=-2.959654D-01

 Vector    9  Occ=1.000000D+00  E=-2.469410D-01

 Vector   10  Occ=0.000000D+00  E=-2.876766D-02

 Vector   11  Occ=0.000000D+00  E= 2.420677D-02

 Vector   12  Occ=0.000000D+00  E= 3.178642D-02

 Vector   13  Occ=0.000000D+00  E= 3.561374D-02

 Vector   14  Occ=0.000000D+00  E= 4.136747D-02

 Vector   15  Occ=0.000000D+00  E= 8.895753D-02

 Vector   16  Occ=0.000000D+00  E= 1.565849D-01

 Vector   17  Occ=0.000000D+00  E= 1.782944D-01

 Vector   18  Occ=0.000000D+00  E= 1.927182D-01

 Vector   19  Occ=0.000000D+00  E= 1.932043D-01

 Vector   20  Occ=0.000000D+00  E= 2.481175D-01

 Vector   21  Occ=0.000000D+00  E= 2.731730D-01

 Vector   22  Occ=0.000000D+00  E= 2.815344D-01

 Vector   23  Occ=0.000000D+00  E= 2.971347D-01

 Vector   24  Occ=0.000000D+00  E= 4.162689D-01

 Vector   25  Occ=0.000000D+00  E= 4.644456D-01

 Vector   26  Occ=0.000000D+00  E= 4.718502D-01

 Vector   27  Occ=0.000000D+00  E= 4.758715D-01

 Vector   28  Occ=0.000000D+00  E= 7.391070D-01

 Vector    1  Occ=1.000000D+00  E=-8.842853D+01

 Vector    2  Occ=1.000000D+00  E=-7.781110D+00

 Vector    3  Occ=1.000000D+00  E=-5.740416D+00

 Vector    4  Occ=1.000000D+00  E=-5.738876D+00

 Vector    5  Occ=1.000000D+00  E=-5.730703D+00

 Vector    6  Occ=1.000000D+00  E=-6.553823D-01

 Vector    7  Occ=1.000000D+00  E=-3.721986D-01

 Vector    8  Occ=1.000000D+00  E=-2.350128D-01

 Vector    9  Occ=0.000000D+00  E=-2.061609D-01

 Vector   10  Occ=0.000000D+00  E=-2.151128D-02

 Vector   11  Occ=0.000000D+00  E= 3.420030D-02

 Vector   12  Occ=0.000000D+00  E= 3.696841D-02

 Vector   13  Occ=0.000000D+00  E= 4.296333D-02

 Vector   14  Occ=0.000000D+00  E= 4.918224D-02

 Vector   15  Occ=0.000000D+00  E= 9.446049D-02

 Vector   16  Occ=0.000000D+00  E= 1.833822D-01

 Vector   17  Occ=0.000000D+00  E= 1.886951D-01

 Vector   18  Occ=0.000000D+00  E= 2.266526D-01

 Vector   19  Occ=0.000000D+00  E= 2.292252D-01

 Vector   20  Occ=0.000000D+00  E= 2.554820D-01

 Vector   21  Occ=0.000000D+00  E= 2.781833D-01

 Vector   22  Occ=0.000000D+00  E= 3.014216D-01

 Vector   23  Occ=0.000000D+00  E= 3.042539D-01

 Vector   24  Occ=0.000000D+00  E= 4.296493D-01

 Vector   25  Occ=0.000000D+00  E= 4.776166D-01

 Vector   26  Occ=0.000000D+00  E= 4.776872D-01

 Vector   27  Occ=0.000000D+00  E= 4.810523D-01

 Vector   28  Occ=0.000000D+00  E= 7.460150D-01

     Multipole analysis of the density
     ---------------------------------

     L   x y z        total         alpha         beta         nuclear
     -   - - -        -----         -----         ----         -------
     0   0 0 0     -0.000000     -9.000000     -8.000000     17.000000

     1   1 0 0     -0.000000      0.000000     -0.000000      0.000000
     1   0 1 0     -0.000000      0.000000     -0.000000      0.000000
     1   0 0 1      0.297142      0.172055      0.125087      0.000000

     2   2 0 0    -11.680570     -6.313791     -5.366780      0.000000
     2   1 1 0      0.519852     -0.024119      0.543970      0.000000
     2   1 0 1     -0.000000     -0.000000     -0.000000      0.000000
     2   0 2 0     -9.810206     -6.400565     -3.409641      0.000000
     2   0 1 1     -0.000000      0.000000     -0.000000      0.000000

 Total times  cpu:       13.5s     wall:       14.1s
