 Output coordinates in angstroms (scale by  1.889725989 to convert to a.u.)

  No.       Tag          Charge          X              Y              Z
 ---- ---------------- ---------- -------------- -------------- --------------
    1 O                    8.0000     0.00000000     0.00000000    -0.10765556
    2 H                    1.0000     0.00000000     0.00000000     0.86124444

         Total DFT energy =      -75.740628364637

                    DFT Final Alpha Molecular Orbital Analysis
                    ------------------------------------------

 Vector    1  Occ=1.000000D+00  E=-1.899517D+01

 Vector    2  Occ=1.000000D+00  E=-9.647886D-01

 Vector    3  Occ=1.000000D+00  E=-4.375239D-01

 Vector    4  Occ=1.000000D+00  E=-3.742317D-01

 Vector    5  Occ=1.000000D+00  E=-2.990463D-01

 Vector    6  Occ=0.000000D+00  E=-2.702415D-02

 Vector    7  Occ=0.000000D+00  E= 1.111709D-01

 Vector    8  Occ=0.000000D+00  E= 1.284721D-01

 Vector    9  Occ=0.000000D+00  E= 1.357278D-01

 Vector   10  Occ=0.000000D+00  E= 1.401006D-01

 Vector   11  Occ=0.000000D+00  E= 1.879698D-01

 Vector   12  Occ=0.000000D+00  E= 3.454337D-01

 Vector   13  Occ=0.000000D+00  E= 3.533812D-01

 Vector   14  Occ=0.000000D+00  E= 4.208727D-01

 Vector   15  Occ=0.000000D+00  E= 6.393138D-01

 Vector    1  Occ=1.000000D+00  E=-1.897147D+01

 Vector    2  Occ=1.000000D+00  E=-9.032955D-01

 Vector    3  Occ=1.000000D+00  E=-4.149805D-01

 Vector    4  Occ=1.000000D+00  E=-2.781224D-01

 Vector    5  Occ=0.000000D+00  E=-2.185586D-01

 Vector    6  Occ=0.000000D+00  E=-2.183600D-02

 Vector    7  Occ=0.000000D+00  E= 1.188020D-01

 Vector    8  Occ=0.000000D+00  E= 1.416144D-01

 Vector    9  Occ=0.000000D+00  E= 1.437973D-01

 Vector   10  Occ=0.000000D+00  E= 1.566867D-01

 Vector   11  Occ=0.000000D+00  E= 1.939360D-01

 Vector   12  Occ=0.000000D+00  E= 3.537531D-01

 Vector   13  Occ=0.000000D+00  E= 3.558957D-01

 Vector   14  Occ=0.000000D+00  E= 4.296005D-01

 Vector   15  Occ=0.000000D+00  E= 6.492667D-01

     Multipole analysis of the density
     ---------------------------------

     L   x y z        total         alpha         beta         nuclear
     -   - - -        -----         -----         ----         -------
     0   0 0 0     -0.000000     -5.000000     -4.000000      9.000000

     1   1 0 0     -0.000000     -0.000000     -0.000000      0.000000
     1   0 1 0      0.000000      0.000000      0.000000      0.000000
     1   0 0 1      0.634969      0.401395      0.233574      0.000000

     2   2 0 0     -5.143518     -2.731198     -2.412320      0.000000
     2   1 1 0     -0.156305     -0.006571     -0.149734      0.000000
     2   1 0 1      0.000000      0.000000      0.000000      0.000000
     2   0 2 0     -4.163783     -2.690009     -1.473774      0.000000
     2   0 1 1     -0.000000     -0.000000     -0.000000      0.000000

 Total times  cpu:        6.8s     wall:        7.5s
