 Output coordinates in angstroms (scale by  1.889725989 to convert to a.u.)

  No.       Tag          Charge          X              Y              Z
 ---- ---------------- ---------- -------------- -------------- --------------
    1 C                    6.0000    -1.21149158     0.00796789     0.00041000
    2 O                    8.0000     1.29396842    -0.10869211     0.00013000
    3 H                    1.0000     0.00947842    -0.11802211     0.00280000
    4 H                    1.0000    -1.52553158    -0.23325211     1.01007000
    5 H                    1.0000    -1.43067158     1.03322789    -0.27808000
    6 H                    1.0000    -1.55271158    -0.71011211    -0.73770000
    7 H                    1.0000     1.41663842     0.84988789    -0.00059000

         Total DFT energy =     -116.268262058816

                    DFT Final Alpha Molecular Orbital Analysis
                    ------------------------------------------

 Vector    1  Occ=1.000000D+00  E=-1.893852D+01

 Vector    2  Occ=1.000000D+00  E=-1.003530D+01

 Vector    3  Occ=1.000000D+00  E=-9.329435D-01

 Vector    4  Occ=1.000000D+00  E=-6.761052D-01

 Vector    5  Occ=1.000000D+00  E=-4.490996D-01

 Vector    6  Occ=1.000000D+00  E=-3.944996D-01

 Vector    7  Occ=1.000000D+00  E=-3.913637D-01

 Vector    8  Occ=1.000000D+00  E=-3.810481D-01

 Vector    9  Occ=1.000000D+00  E=-2.652333D-01

 Vector   10  Occ=1.000000D+00  E=-2.500650D-01

 Vector   11  Occ=0.000000D+00  E=-2.685511D-02

 Vector   12  Occ=0.000000D+00  E= 3.527267D-03

 Vector   13  Occ=0.000000D+00  E= 2.024217D-02

 Vector   14  Occ=0.000000D+00  E= 2.188644D-02

 Vector   15  Occ=0.000000D+00  E= 5.149943D-02

 Vector   16  Occ=0.000000D+00  E= 6.578691D-02

 Vector   17  Occ=0.000000D+00  E= 7.209660D-02

 Vector   18  Occ=0.000000D+00  E= 7.934791D-02

 Vector   19  Occ=0.000000D+00  E= 9.813525D-02

 Vector   20  Occ=0.000000D+00  E= 1.326405D-01

 Vector   21  Occ=0.000000D+00  E= 1.590349D-01

 Vector   22  Occ=0.000000D+00  E= 1.603201D-01

 Vector   23  Occ=0.000000D+00  E= 1.713596D-01

 Vector   24  Occ=0.000000D+00  E= 1.865744D-01

 Vector   25  Occ=0.000000D+00  E= 2.138607D-01

 Vector   26  Occ=0.000000D+00  E= 2.248895D-01

 Vector   27  Occ=0.000000D+00  E= 2.549858D-01

 Vector   28  Occ=0.000000D+00  E= 2.712588D-01

 Vector   29  Occ=0.000000D+00  E= 2.767442D-01

 Vector   30  Occ=0.000000D+00  E= 2.854055D-01

 Vector   31  Occ=0.000000D+00  E= 2.988549D-01

 Vector   32  Occ=0.000000D+00  E= 3.014387D-01

 Vector   33  Occ=0.000000D+00  E= 3.475791D-01

 Vector   34  Occ=0.000000D+00  E= 3.644966D-01

 Vector   35  Occ=0.000000D+00  E= 4.253698D-01

 Vector   36  Occ=0.000000D+00  E= 4.775317D-01

 Vector   37  Occ=0.000000D+00  E= 4.836717D-01

 Vector   38  Occ=0.000000D+00  E= 4.867500D-01

 Vector   39  Occ=0.000000D+00  E= 5.223879D-01

 Vector    1  Occ=1.000000D+00  E=-1.892315D+01

 Vector    2  Occ=1.000000D+00  E=-1.002766D+01

 Vector    3  Occ=1.000000D+00  E=-8.971944D-01

 Vector    4  Occ=1.000000D+00  E=-6.574359D-01

 Vector    5  Occ=1.000000D+00  E=-4.254988D-01

 Vector    6  Occ=1.000000D+00  E=-3.873700D-01

 Vector    7  Occ=1.000000D+00  E=-3.867656D-01

 Vector    8  Occ=1.000000D+00  E=-3.551708D-01

 Vector    9  Occ=1.000000D+00  E=-2.535956D-01

 Vector   10  Occ=0.000000D+00  E=-1.686189D-01

 Vector   11  Occ=0.000000D+00  E=-2.377148D-02

 Vector   12  Occ=0.000000D+00  E= 8.367108D-03

 Vector   13  Occ=0.000000D+00  E= 2.277093D-02

 Vector   14  Occ=0.000000D+00  E= 2.433450D-02

 Vector   15  Occ=0.000000D+00  E= 5.539274D-02

 Vector   16  Occ=0.000000D+00  E= 6.917946D-02

 Vector   17  Occ=0.000000D+00  E= 7.402447D-02

 Vector   18  Occ=0.000000D+00  E= 8.171471D-02

 Vector   19  Occ=0.000000D+00  E= 1.027842D-01

 Vector   20  Occ=0.000000D+00  E= 1.390982D-01

 Vector   21  Occ=0.000000D+00  E= 1.642321D-01

 Vector   22  Occ=0.000000D+00  E= 1.665190D-01

 Vector   23  Occ=0.000000D+00  E= 1.751482D-01

 Vector   24  Occ=0.000000D+00  E= 1.952890D-01

 Vector   25  Occ=0.000000D+00  E= 2.178815D-01

 Vector   26  Occ=0.000000D+00  E= 2.315417D-01

 Vector   27  Occ=0.000000D+00  E= 2.606606D-01

 Vector   28  Occ=0.000000D+00  E= 2.762451D-01

 Vector   29  Occ=0.000000D+00  E= 2.827420D-01

 Vector   30  Occ=0.000000D+00  E= 2.928359D-01

 Vector   31  Occ=0.000000D+00  E= 3.026896D-01

 Vector   32  Occ=0.000000D+00  E= 3.053580D-01

 Vector   33  Occ=0.000000D+00  E= 3.614487D-01

 Vector   34  Occ=0.000000D+00  E= 3.658056D-01

 Vector   35  Occ=0.000000D+00  E= 4.311970D-01

 Vector   36  Occ=0.000000D+00  E= 4.848290D-01

 Vector   37  Occ=0.000000D+00  E= 4.866313D-01

 Vector   38  Occ=0.000000D+00  E= 4.898284D-01

 Vector   39  Occ=0.000000D+00  E= 5.260448D-01

     Multipole analysis of the density
     ---------------------------------

     L   x y z        total         alpha         beta         nuclear
     -   - - -        -----         -----         ----         -------
     0   0 0 0     -0.000000    -10.000000     -9.000000     19.000000

     1   1 0 0     -0.597269     -0.564749     -0.032521     -0.000000
     1   0 1 0      0.540635      0.328663      0.211972     -0.000000
     1   0 0 1     -0.000008     -0.000451      0.000442      0.000000

     2   2 0 0    -11.126765    -64.642881    -57.162025    110.678141
     2   1 1 0      1.795817      1.050603      0.745154      0.000060
     2   1 0 1     -0.000026      0.000110      0.000081     -0.000218
     2   0 2 0     -9.705637     -9.418808     -9.062208      8.775380
     2   0 1 1      0.004733      0.000352      0.004368      0.000012

 Total times  cpu:      181.3s     wall:      195.2s
