 Output coordinates in angstroms (scale by  1.889725989 to convert to a.u.)

  No.       Tag          Charge          X              Y              Z
 ---- ---------------- ---------- -------------- -------------- --------------
    1 H                    1.0000     0.00000000     0.00000000    -0.86028600
    2 O                    8.0000     0.00000000     0.00000000     0.32902400
    3 H                    1.0000     0.00000000     0.00000000    -1.77190600

         Total DFT energy =      -76.244727341965

                    DFT Final Alpha Molecular Orbital Analysis
                    ------------------------------------------

 Vector    1  Occ=1.000000D+00  E=-1.902198D+01

 Vector    2  Occ=1.000000D+00  E=-9.509782D-01

 Vector    3  Occ=1.000000D+00  E=-4.957651D-01

 Vector    4  Occ=1.000000D+00  E=-3.850870D-01

 Vector    5  Occ=1.000000D+00  E=-3.088074D-01

 Vector    6  Occ=1.000000D+00  E=-3.069498D-01

 Vector    7  Occ=0.000000D+00  E= 1.053662D-02

 Vector    8  Occ=0.000000D+00  E= 2.129508D-02

 Vector    9  Occ=0.000000D+00  E= 1.116124D-01

 Vector   10  Occ=0.000000D+00  E= 1.226998D-01

 Vector   11  Occ=0.000000D+00  E= 1.563333D-01

 Vector   12  Occ=0.000000D+00  E= 1.621804D-01

 Vector   13  Occ=0.000000D+00  E= 2.279886D-01

 Vector   14  Occ=0.000000D+00  E= 2.408379D-01

 Vector   15  Occ=0.000000D+00  E= 2.450676D-01

 Vector   16  Occ=0.000000D+00  E= 3.391824D-01

 Vector   17  Occ=0.000000D+00  E= 4.521342D-01

 Vector   18  Occ=0.000000D+00  E= 4.856793D-01

 Vector   19  Occ=0.000000D+00  E= 4.948761D-01

 Vector   20  Occ=0.000000D+00  E= 7.213986D-01

 Vector    1  Occ=1.000000D+00  E=-1.898409D+01

 Vector    2  Occ=1.000000D+00  E=-8.496548D-01

 Vector    3  Occ=1.000000D+00  E=-4.290961D-01

 Vector    4  Occ=1.000000D+00  E=-2.831474D-01

 Vector    5  Occ=0.000000D+00  E=-2.121676D-01

 Vector    6  Occ=0.000000D+00  E=-1.800217D-01

 Vector    7  Occ=0.000000D+00  E= 2.764769D-02

 Vector    8  Occ=0.000000D+00  E= 3.977484D-02

 Vector    9  Occ=0.000000D+00  E= 1.332311D-01

 Vector   10  Occ=0.000000D+00  E= 1.457518D-01

 Vector   11  Occ=0.000000D+00  E= 1.700787D-01

 Vector   12  Occ=0.000000D+00  E= 1.962921D-01

 Vector   13  Occ=0.000000D+00  E= 2.446486D-01

 Vector   14  Occ=0.000000D+00  E= 2.724555D-01

 Vector   15  Occ=0.000000D+00  E= 2.731868D-01

 Vector   16  Occ=0.000000D+00  E= 3.845294D-01

 Vector   17  Occ=0.000000D+00  E= 4.768415D-01

 Vector   18  Occ=0.000000D+00  E= 5.118576D-01

     Multipole analysis of the density
     ---------------------------------

     L   x y z        total         alpha         beta         nuclear
     -   - - -        -----         -----         ----         -------
     0   0 0 0     -0.000000     -6.000000     -4.000000     10.000000

     1   1 0 0      0.000000      0.000000      0.000000      0.000000
     1   0 1 0      0.000000      0.000000      0.000000      0.000000
     1   0 0 1     -0.441592      0.212173     -0.653765      0.000000

     2   2 0 0     -5.763912     -3.444485     -2.319427      0.000000
     2   1 1 0      0.460620      0.018075      0.442545      0.000000
     2   1 0 1      0.000000      0.000000      0.000000      0.000000
     2   0 2 0     -5.326185     -3.427309     -1.898877      0.000000
     2   0 1 1      0.000000     -0.000000      0.000000      0.000000

 Total times  cpu:       14.8s     wall:       15.4s
