 Output coordinates in angstroms (scale by  1.889725989 to convert to a.u.)

  No.       Tag          Charge          X              Y              Z
 ---- ---------------- ---------- -------------- -------------- --------------
    1 H                    1.0000     1.26210000    -0.22009684     0.00000000
    2 S                   16.0000     0.00000000     0.22315316     0.00000000
    3 H                    1.0000    -0.50058000    -1.11544684     0.00000000
    4 H                    1.0000    -0.76152000    -2.23490684     0.00000000

         Total DFT energy =     -399.788944986731

                    DFT Final Alpha Molecular Orbital Analysis
                    ------------------------------------------

 Vector    1  Occ=1.000000D+00  E=-8.841396D+01

 Vector    2  Occ=1.000000D+00  E=-7.768444D+00

 Vector    3  Occ=1.000000D+00  E=-5.731293D+00

 Vector    4  Occ=1.000000D+00  E=-5.727132D+00

 Vector    5  Occ=1.000000D+00  E=-5.718446D+00

 Vector    6  Occ=1.000000D+00  E=-7.021624D-01

 Vector    7  Occ=1.000000D+00  E=-4.490759D-01

 Vector    8  Occ=1.000000D+00  E=-3.685681D-01

 Vector    9  Occ=1.000000D+00  E=-2.626567D-01

 Vector   10  Occ=1.000000D+00  E=-2.421646D-01

 Vector   11  Occ=0.000000D+00  E=-2.919010D-02

 Vector   12  Occ=0.000000D+00  E= 1.387059D-03

 Vector   13  Occ=0.000000D+00  E= 2.366906D-02

 Vector   14  Occ=0.000000D+00  E= 2.901815D-02

 Vector   15  Occ=0.000000D+00  E= 3.699899D-02

 Vector   16  Occ=0.000000D+00  E= 6.571791D-02

 Vector   17  Occ=0.000000D+00  E= 8.212762D-02

 Vector   18  Occ=0.000000D+00  E= 9.340952D-02

 Vector   19  Occ=0.000000D+00  E= 1.164571D-01

 Vector   20  Occ=0.000000D+00  E= 1.415364D-01

 Vector   21  Occ=0.000000D+00  E= 1.485317D-01

 Vector   22  Occ=0.000000D+00  E= 1.818231D-01

 Vector   23  Occ=0.000000D+00  E= 2.557491D-01

 Vector   24  Occ=0.000000D+00  E= 2.625788D-01

 Vector   25  Occ=0.000000D+00  E= 2.790119D-01

 Vector   26  Occ=0.000000D+00  E= 2.846724D-01

 Vector   27  Occ=0.000000D+00  E= 3.052216D-01

 Vector   28  Occ=0.000000D+00  E= 3.118982D-01

 Vector   29  Occ=0.000000D+00  E= 3.194417D-01

 Vector   30  Occ=0.000000D+00  E= 3.686992D-01

 Vector   31  Occ=0.000000D+00  E= 4.326719D-01

 Vector   32  Occ=0.000000D+00  E= 4.665912D-01

 Vector   33  Occ=0.000000D+00  E= 4.810247D-01

 Vector   34  Occ=0.000000D+00  E= 5.111305D-01

 Vector    1  Occ=1.000000D+00  E=-8.841203D+01

 Vector    2  Occ=1.000000D+00  E=-7.766691D+00

 Vector    3  Occ=1.000000D+00  E=-5.727135D+00

 Vector    4  Occ=1.000000D+00  E=-5.724204D+00

 Vector    5  Occ=1.000000D+00  E=-5.717109D+00

 Vector    6  Occ=1.000000D+00  E=-6.891185D-01

 Vector    7  Occ=1.000000D+00  E=-4.265627D-01

 Vector    8  Occ=1.000000D+00  E=-3.542791D-01

 Vector    9  Occ=1.000000D+00  E=-2.379419D-01

 Vector   10  Occ=0.000000D+00  E=-1.583206D-01

 Vector   11  Occ=0.000000D+00  E=-2.393215D-02

 Vector   12  Occ=0.000000D+00  E= 1.447032D-02

 Vector   13  Occ=0.000000D+00  E= 2.808306D-02

 Vector   14  Occ=0.000000D+00  E= 4.022246D-02

 Vector   15  Occ=0.000000D+00  E= 4.950485D-02

 Vector   16  Occ=0.000000D+00  E= 7.993587D-02

 Vector   17  Occ=0.000000D+00  E= 8.831582D-02

 Vector   18  Occ=0.000000D+00  E= 1.100839D-01

 Vector   19  Occ=0.000000D+00  E= 1.358620D-01

 Vector   20  Occ=0.000000D+00  E= 1.537501D-01

 Vector   21  Occ=0.000000D+00  E= 1.657309D-01

 Vector   22  Occ=0.000000D+00  E= 1.833235D-01

 Vector   23  Occ=0.000000D+00  E= 2.672502D-01

 Vector   24  Occ=0.000000D+00  E= 2.692528D-01

 Vector   25  Occ=0.000000D+00  E= 2.957367D-01

 Vector   26  Occ=0.000000D+00  E= 2.997150D-01

 Vector   27  Occ=0.000000D+00  E= 3.331913D-01

 Vector   28  Occ=0.000000D+00  E= 3.445803D-01

 Vector   29  Occ=0.000000D+00  E= 3.534146D-01

 Vector   30  Occ=0.000000D+00  E= 3.846692D-01

 Vector   31  Occ=0.000000D+00  E= 4.493862D-01

 Vector   32  Occ=0.000000D+00  E= 4.760057D-01

 Vector   33  Occ=0.000000D+00  E= 4.820692D-01

 Vector   34  Occ=0.000000D+00  E= 5.214704D-01

     Multipole analysis of the density
     ---------------------------------

     L   x y z        total         alpha         beta         nuclear
     -   - - -        -----         -----         ----         -------
     0   0 0 0     -0.000000    -10.000000     -9.000000     19.000000

     1   1 0 0      0.183409      0.563512     -0.380103      0.000000
     1   0 1 0     -0.283631      1.250302     -1.533933      0.000000
     1   0 0 1     -0.000000     -0.000000     -0.000000      0.000000

     2   2 0 0    -10.379766    -10.754126     -8.279719      8.654080
     2   1 1 0      0.181154     -5.886885     -1.011641      7.079679
     2   1 0 1     -0.000000     -0.000000     -0.000000      0.000000
     2   0 2 0    -11.300425    -25.868992    -10.729674     25.298242
     2   0 1 1     -0.000000     -0.000000     -0.000000      0.000000

 Total times  cpu:       43.1s     wall:       44.6s
