 Output coordinates in angstroms (scale by  1.889725989 to convert to a.u.)

  No.       Tag          Charge          X              Y              Z
 ---- ---------------- ---------- -------------- -------------- --------------
    1 C                    6.0000    -0.00000000    -0.00000000     0.21494736
    2 C                    6.0000    -0.00000000    -0.00000000     1.43313036
    3 C                    6.0000     0.00000000    -0.00000000    -1.24647564
    4 H                    1.0000     0.00000000     0.00000000     2.49888736
    5 H                    1.0000     0.72205823     0.72205823    -1.63616664
    6 H                    1.0000     0.26429165    -0.98634988    -1.63616664
    7 H                    1.0000    -0.98634988     0.26429165    -1.63616664

         Total DFT energy =     -116.716965246711

                       DFT Final Molecular Orbital Analysis
                       ------------------------------------

 Vector    1  Occ=2.000000D+00  E=-1.001235D+01  Symmetry=a1

 Vector  129  Occ=0.000000D+00  E= 3.302105D+00  Symmetry=a1

 Vector  130  Occ=0.000000D+00  E= 3.411469D+00  Symmetry=a1

 Vector  131  Occ=0.000000D+00  E= 3.464263D+00  Symmetry=e

 Vector  132  Occ=0.000000D+00  E= 3.464263D+00  Symmetry=e

 Vector  133  Occ=0.000000D+00  E= 3.557149D+00  Symmetry=a2

 Vector  134  Occ=0.000000D+00  E= 3.608240D+00  Symmetry=a1

 Vector  135  Occ=0.000000D+00  E= 3.713348D+00  Symmetry=e

 Vector  136  Occ=0.000000D+00  E= 3.713348D+00  Symmetry=e

 Vector  137  Occ=0.000000D+00  E= 3.985471D+00  Symmetry=a1

 Vector  138  Occ=0.000000D+00  E= 4.051222D+00  Symmetry=e

 Vector  139  Occ=0.000000D+00  E= 4.051222D+00  Symmetry=e

 Vector  140  Occ=0.000000D+00  E= 4.074733D+00  Symmetry=a1

 Vector  141  Occ=0.000000D+00  E= 4.112983D+00  Symmetry=e

 Vector  142  Occ=0.000000D+00  E= 4.112983D+00  Symmetry=e

 Vector  143  Occ=0.000000D+00  E= 4.306025D+00  Symmetry=e

 Vector  144  Occ=0.000000D+00  E= 4.306025D+00  Symmetry=e

 Vector  145  Occ=0.000000D+00  E= 4.624364D+00  Symmetry=a1

 Vector  146  Occ=0.000000D+00  E= 4.633965D+00  Symmetry=e

 Vector  147  Occ=0.000000D+00  E= 4.633965D+00  Symmetry=e

 Vector  148  Occ=0.000000D+00  E= 4.676938D+00  Symmetry=a1

 Vector  149  Occ=0.000000D+00  E= 4.742319D+00  Symmetry=a1

 Vector  150  Occ=0.000000D+00  E= 4.871557D+00  Symmetry=a2

 Vector  151  Occ=0.000000D+00  E= 4.895568D+00  Symmetry=e

 Vector  152  Occ=0.000000D+00  E= 4.895568D+00  Symmetry=e

 Vector  153  Occ=0.000000D+00  E= 4.960180D+00  Symmetry=a1

 Vector  154  Occ=0.000000D+00  E= 5.019308D+00  Symmetry=e

 Vector  155  Occ=0.000000D+00  E= 5.019308D+00  Symmetry=e

 Vector  156  Occ=0.000000D+00  E= 5.128381D+00  Symmetry=a1

 Vector  157  Occ=0.000000D+00  E= 5.166641D+00  Symmetry=e

 Vector  158  Occ=0.000000D+00  E= 5.166641D+00  Symmetry=e

 Vector  159  Occ=0.000000D+00  E= 6.011767D+00  Symmetry=a1

 Vector  160  Occ=0.000000D+00  E= 6.163428D+00  Symmetry=e

 Vector  161  Occ=0.000000D+00  E= 6.163428D+00  Symmetry=e

 Vector  162  Occ=0.000000D+00  E= 6.513063D+00  Symmetry=a1

 Vector  163  Occ=0.000000D+00  E= 6.969204D+00  Symmetry=e

 Vector  164  Occ=0.000000D+00  E= 6.969204D+00  Symmetry=e

 Vector  165  Occ=0.000000D+00  E= 7.101838D+00  Symmetry=e

 Vector  166  Occ=0.000000D+00  E= 7.101838D+00  Symmetry=e

 Vector  167  Occ=0.000000D+00  E= 7.278158D+00  Symmetry=e

 Vector  168  Occ=0.000000D+00  E= 7.278158D+00  Symmetry=e

 Vector  169  Occ=0.000000D+00  E= 7.308170D+00  Symmetry=e

 Vector  170  Occ=0.000000D+00  E= 7.308170D+00  Symmetry=e

 Vector  171  Occ=0.000000D+00  E= 7.411577D+00  Symmetry=e

 Vector  172  Occ=0.000000D+00  E= 7.411577D+00  Symmetry=e

 Vector  173  Occ=0.000000D+00  E= 7.705172D+00  Symmetry=a1

 Vector  174  Occ=0.000000D+00  E= 7.779327D+00  Symmetry=e

 Vector  175  Occ=0.000000D+00  E= 7.779327D+00  Symmetry=e

 Vector  176  Occ=0.000000D+00  E= 7.869539D+00  Symmetry=a1

 Vector  177  Occ=0.000000D+00  E= 8.127800D+00  Symmetry=a1

 Vector  178  Occ=0.000000D+00  E= 8.430266D+00  Symmetry=e

 Vector  179  Occ=0.000000D+00  E= 8.430266D+00  Symmetry=e

 Vector  180  Occ=0.000000D+00  E= 8.628532D+00  Symmetry=a1

 Vector  181  Occ=0.000000D+00  E= 8.639095D+00  Symmetry=e

 Vector  182  Occ=0.000000D+00  E= 8.639095D+00  Symmetry=e

 Vector  183  Occ=0.000000D+00  E= 8.703380D+00  Symmetry=a2

 Vector  184  Occ=0.000000D+00  E= 8.815284D+00  Symmetry=e

 Vector  185  Occ=0.000000D+00  E= 8.815284D+00  Symmetry=e

 Vector  186  Occ=0.000000D+00  E= 8.880445D+00  Symmetry=a1

 Vector  187  Occ=0.000000D+00  E= 8.987463D+00  Symmetry=e

 Vector  188  Occ=0.000000D+00  E= 8.987463D+00  Symmetry=e

 Vector  189  Occ=0.000000D+00  E= 9.179869D+00  Symmetry=e

 Vector  190  Occ=0.000000D+00  E= 9.179869D+00  Symmetry=e

 Vector  191  Occ=0.000000D+00  E= 9.218721D+00  Symmetry=a1

 Vector  192  Occ=0.000000D+00  E= 9.477403D+00  Symmetry=a1

 Vector  193  Occ=0.000000D+00  E= 9.609164D+00  Symmetry=e

 Vector  194  Occ=0.000000D+00  E= 9.609164D+00  Symmetry=e

 Vector  195  Occ=0.000000D+00  E= 9.644526D+00  Symmetry=a1

 Vector  196  Occ=0.000000D+00  E= 1.011955D+01  Symmetry=e

 Vector  197  Occ=0.000000D+00  E= 1.011955D+01  Symmetry=e

 Vector  198  Occ=0.000000D+00  E= 1.012399D+01  Symmetry=a1

 Vector  199  Occ=0.000000D+00  E= 1.036204D+01  Symmetry=a1

 Vector  200  Occ=0.000000D+00  E= 1.042808D+01  Symmetry=e

 Vector  201  Occ=0.000000D+00  E= 1.042808D+01  Symmetry=e

 Vector  202  Occ=0.000000D+00  E= 1.043096D+01  Symmetry=a1

 Vector  203  Occ=0.000000D+00  E= 1.085727D+01  Symmetry=a1

 Vector  204  Occ=0.000000D+00  E= 1.110298D+01  Symmetry=a1

 Vector  205  Occ=0.000000D+00  E= 1.259682D+01  Symmetry=a1

 Vector  206  Occ=0.000000D+00  E= 2.898548D+01  Symmetry=a1

 Vector  207  Occ=0.000000D+00  E= 2.917183D+01  Symmetry=a1

 Vector  208  Occ=0.000000D+00  E= 2.929414D+01  Symmetry=a1

     Multipole analysis of the density
     ---------------------------------

     L   x y z        total         alpha         beta         nuclear
     -   - - -        -----         -----         ----         -------
     0   0 0 0     -0.000000    -11.000000    -11.000000     22.000000

     1   1 0 0     -0.000000     -0.000000     -0.000000     -0.000000
     1   0 1 0     -0.000000      0.000000      0.000000     -0.000000
     1   0 0 1     -0.340407     -0.170203     -0.170203     -0.000000

     2   2 0 0    -14.689407    -10.137462    -10.137462      5.585517
     2   1 1 0      0.000000      0.000000      0.000000     -0.000000
     2   1 0 1      0.000000      0.000000      0.000000      0.000000
     2   0 2 0    -14.689407    -10.137462    -10.137462      5.585517
     2   0 1 1      0.000000      0.000000      0.000000      0.000000

 Total times  cpu:        5.7s     wall:        8.3s
