 Output coordinates in angstroms (scale by  1.889725989 to convert to a.u.)

  No.       Tag          Charge          X              Y              Z
 ---- ---------------- ---------- -------------- -------------- --------------
    1 C                    6.0000     0.00000000     0.00000000     0.00000000

         Total DFT energy =      -37.433214399726

                    DFT Final Alpha Molecular Orbital Analysis
                    ------------------------------------------

 Vector    1  Occ=1.000000D+00  E=-1.075443D+01

 Vector    2  Occ=1.000000D+00  E=-1.019620D+00

 Vector    3  Occ=1.000000D+00  E=-7.031604D-01

 Vector    4  Occ=0.000000D+00  E=-6.634512D-01

 Vector    5  Occ=0.000000D+00  E=-6.634470D-01

 Vector    6  Occ=0.000000D+00  E=-1.836043D-01

 Vector    7  Occ=0.000000D+00  E=-1.284480D-01

 Vector    8  Occ=0.000000D+00  E=-1.203982D-01

 Vector    9  Occ=0.000000D+00  E=-1.203979D-01

 Vector   10  Occ=0.000000D+00  E= 7.753654D-03

 Vector   11  Occ=0.000000D+00  E= 7.753682D-03

 Vector   12  Occ=0.000000D+00  E= 1.095808D-02

 Vector   13  Occ=0.000000D+00  E= 1.472370D-02

 Vector   14  Occ=0.000000D+00  E= 1.472376D-02

 Vector   15  Occ=0.000000D+00  E= 8.892135D-02

 Vector   16  Occ=0.000000D+00  E= 1.860325D-01

 Vector   17  Occ=0.000000D+00  E= 2.056227D-01

 Vector   18  Occ=0.000000D+00  E= 2.056251D-01

 Vector   19  Occ=0.000000D+00  E= 7.748854D-01

 Vector    1  Occ=1.000000D+00  E=-1.073811D+01

 Vector    2  Occ=1.000000D+00  E=-9.799320D-01

 Vector    3  Occ=0.000000D+00  E=-6.638619D-01

 Vector    4  Occ=0.000000D+00  E=-6.638608D-01

 Vector    5  Occ=0.000000D+00  E=-5.739349D-01

 Vector    6  Occ=0.000000D+00  E=-1.690327D-01

 Vector    7  Occ=0.000000D+00  E=-1.142883D-01

 Vector    8  Occ=0.000000D+00  E=-1.142882D-01

 Vector    9  Occ=0.000000D+00  E=-1.015982D-01

 Vector   10  Occ=0.000000D+00  E= 2.003639D-02

 Vector   11  Occ=0.000000D+00  E= 2.003642D-02

 Vector   12  Occ=0.000000D+00  E= 3.409074D-02

 Vector   13  Occ=0.000000D+00  E= 3.409076D-02

 Vector   14  Occ=0.000000D+00  E= 3.528908D-02

 Vector   15  Occ=0.000000D+00  E= 1.010593D-01

 Vector   16  Occ=0.000000D+00  E= 2.120850D-01

 Vector   17  Occ=0.000000D+00  E= 2.120856D-01

 Vector   18  Occ=0.000000D+00  E= 2.409611D-01

 Vector   19  Occ=0.000000D+00  E= 8.009022D-01

 Total times  cpu:        0.6s     wall:        1.3s
