 Output coordinates in angstroms (scale by  1.889725989 to convert to a.u.)

  No.       Tag          Charge          X              Y              Z
 ---- ---------------- ---------- -------------- -------------- --------------
    1 C                    6.0000     0.00000000     0.00000000     0.00000000

         Total DFT energy =      -37.851785465082

                    DFT Final Alpha Molecular Orbital Analysis
                    ------------------------------------------

 Vector    1  Occ=1.000000D+00  E=-1.021133D+01

 Vector    2  Occ=1.000000D+00  E=-5.932704D-01

 Vector    3  Occ=1.000000D+00  E=-2.720985D-01

 Vector    4  Occ=1.000000D+00  E=-2.720982D-01

 Vector    5  Occ=0.000000D+00  E=-2.554515D-01

 Vector    6  Occ=0.000000D+00  E= 1.537239D-02

 Vector    7  Occ=0.000000D+00  E= 6.104254D-02

 Vector    8  Occ=0.000000D+00  E= 6.104257D-02

 Vector    9  Occ=0.000000D+00  E= 6.562282D-02

 Vector   10  Occ=0.000000D+00  E= 2.672803D-01

 Vector   11  Occ=0.000000D+00  E= 2.672803D-01

 Vector   12  Occ=0.000000D+00  E= 2.744493D-01

 Vector   13  Occ=0.000000D+00  E= 2.744493D-01

 Vector   14  Occ=0.000000D+00  E= 2.789842D-01

 Vector   15  Occ=0.000000D+00  E= 3.067252D-01

 Vector   16  Occ=0.000000D+00  E= 4.610624D-01

 Vector   17  Occ=0.000000D+00  E= 4.610626D-01

 Vector   18  Occ=0.000000D+00  E= 4.868245D-01

 Vector   19  Occ=0.000000D+00  E= 1.047284D+00

 Vector    1  Occ=1.000000D+00  E=-1.018324D+01

 Vector    2  Occ=1.000000D+00  E=-5.198536D-01

 Vector    3  Occ=0.000000D+00  E=-2.418740D-01

 Vector    4  Occ=0.000000D+00  E=-1.754369D-01

 Vector    5  Occ=0.000000D+00  E=-1.754368D-01

 Vector    6  Occ=0.000000D+00  E= 3.979868D-02

 Vector    7  Occ=0.000000D+00  E= 7.904443D-02

 Vector    8  Occ=0.000000D+00  E= 9.182620D-02

 Vector    9  Occ=0.000000D+00  E= 9.182622D-02

 Vector   10  Occ=0.000000D+00  E= 2.873892D-01

 Vector   11  Occ=0.000000D+00  E= 2.919562D-01

 Vector   12  Occ=0.000000D+00  E= 2.919562D-01

 Vector   13  Occ=0.000000D+00  E= 2.941840D-01

 Vector   14  Occ=0.000000D+00  E= 2.941840D-01

 Vector   15  Occ=0.000000D+00  E= 3.334176D-01

 Vector   16  Occ=0.000000D+00  E= 5.073370D-01

 Total times  cpu:        0.6s     wall:        1.3s
