 Output coordinates in angstroms (scale by  1.889725989 to convert to a.u.)

  No.       Tag          Charge          X              Y              Z
 ---- ---------------- ---------- -------------- -------------- --------------
    1 Cl                  17.0000     0.00000000     0.00000000     0.00000000

         Total DFT energy =     -459.735977989371

                    DFT Final Alpha Molecular Orbital Analysis
                    ------------------------------------------

 Vector    1  Occ=1.000000D+00  E=-1.016202D+02

 Vector    2  Occ=1.000000D+00  E=-9.855527D+00

 Vector    3  Occ=1.000000D+00  E=-7.644533D+00

 Vector    4  Occ=1.000000D+00  E=-7.644533D+00

 Vector    5  Occ=1.000000D+00  E=-7.620097D+00

 Vector    6  Occ=1.000000D+00  E=-1.279942D+00

 Vector    7  Occ=1.000000D+00  E=-8.347910D-01

 Vector    8  Occ=1.000000D+00  E=-8.347910D-01

 Vector    9  Occ=1.000000D+00  E=-7.658670D-01

 Vector   10  Occ=0.000000D+00  E=-2.178500D-01

 Vector   11  Occ=0.000000D+00  E=-2.075514D-01

 Vector   12  Occ=0.000000D+00  E=-2.075514D-01

 Vector   13  Occ=0.000000D+00  E=-1.776853D-01

 Vector   14  Occ=0.000000D+00  E=-1.776853D-01

 Vector   15  Occ=0.000000D+00  E=-1.655906D-01

 Vector   16  Occ=0.000000D+00  E=-1.330853D-01

 Vector   17  Occ=0.000000D+00  E=-1.330819D-01

 Vector   18  Occ=0.000000D+00  E=-1.244253D-01

 Vector   19  Occ=0.000000D+00  E= 1.054106D-01

 Vector   20  Occ=0.000000D+00  E= 1.309869D-01

 Vector   21  Occ=0.000000D+00  E= 1.309916D-01

 Vector   22  Occ=0.000000D+00  E= 1.416306D-01

 Vector   23  Occ=0.000000D+00  E= 5.550959D-01

 Vector    1  Occ=1.000000D+00  E=-1.016065D+02

 Vector    2  Occ=1.000000D+00  E=-9.844093D+00

 Vector    3  Occ=1.000000D+00  E=-7.622611D+00

 Vector    4  Occ=1.000000D+00  E=-7.622611D+00

 Vector    5  Occ=1.000000D+00  E=-7.613015D+00

 Vector    6  Occ=1.000000D+00  E=-1.191657D+00

 Vector    7  Occ=1.000000D+00  E=-7.493318D-01

 Vector    8  Occ=0.000000D+00  E=-7.308234D-01

 Vector    9  Occ=0.000000D+00  E=-7.308234D-01

 Vector   10  Occ=0.000000D+00  E=-1.958643D-01

 Vector   11  Occ=0.000000D+00  E=-1.479786D-01

 Vector   12  Occ=0.000000D+00  E=-1.479786D-01

 Vector   13  Occ=0.000000D+00  E=-1.438678D-01

 Vector   14  Occ=0.000000D+00  E=-1.388868D-01

 Vector   15  Occ=0.000000D+00  E=-1.388868D-01

 Vector   16  Occ=0.000000D+00  E=-1.184002D-01

 Vector   17  Occ=0.000000D+00  E=-1.100525D-01

 Vector   18  Occ=0.000000D+00  E=-1.100501D-01

 Vector   19  Occ=0.000000D+00  E= 1.253088D-01

 Vector   20  Occ=0.000000D+00  E= 1.497038D-01

 Vector   21  Occ=0.000000D+00  E= 1.602085D-01

 Vector   22  Occ=0.000000D+00  E= 1.602116D-01

 Vector   23  Occ=0.000000D+00  E= 6.386310D-01

 Total times  cpu:        1.5s     wall:        2.2s
