 Output coordinates in angstroms (scale by  1.889725989 to convert to a.u.)

  No.       Tag          Charge          X              Y              Z
 ---- ---------------- ---------- -------------- -------------- --------------
    1 Cl                  17.0000     0.00000000     0.00000000     0.00000000

         Total DFT energy =     -460.209779171052

                    DFT Final Alpha Molecular Orbital Analysis
                    ------------------------------------------

 Vector    1  Occ=1.000000D+00  E=-1.011421D+02

 Vector    2  Occ=1.000000D+00  E=-9.391427D+00

 Vector    3  Occ=1.000000D+00  E=-7.184091D+00

 Vector    4  Occ=1.000000D+00  E=-7.162272D+00

 Vector    5  Occ=1.000000D+00  E=-7.162272D+00

 Vector    6  Occ=1.000000D+00  E=-8.427183D-01

 Vector    7  Occ=1.000000D+00  E=-4.399990D-01

 Vector    8  Occ=1.000000D+00  E=-3.764080D-01

 Vector    9  Occ=1.000000D+00  E=-3.764076D-01

 Vector   10  Occ=0.000000D+00  E= 2.471735D-03

 Vector   11  Occ=0.000000D+00  E= 5.669765D-02

 Vector   12  Occ=0.000000D+00  E= 6.394948D-02

 Vector   13  Occ=0.000000D+00  E= 6.395104D-02

 Vector   14  Occ=0.000000D+00  E= 1.380883D-01

 Vector   15  Occ=0.000000D+00  E= 1.438084D-01

 Vector   16  Occ=0.000000D+00  E= 1.438086D-01

 Vector   17  Occ=0.000000D+00  E= 1.692713D-01

 Vector   18  Occ=0.000000D+00  E= 1.692713D-01

 Vector   19  Occ=0.000000D+00  E= 3.300505D-01

 Vector   20  Occ=0.000000D+00  E= 3.619532D-01

 Vector   21  Occ=0.000000D+00  E= 3.735465D-01

 Vector   22  Occ=0.000000D+00  E= 3.735472D-01

 Vector   23  Occ=0.000000D+00  E= 9.351351D-01

 Vector    1  Occ=1.000000D+00  E=-1.011358D+02

 Vector    2  Occ=1.000000D+00  E=-9.386241D+00

 Vector    3  Occ=1.000000D+00  E=-7.167319D+00

 Vector    4  Occ=1.000000D+00  E=-7.159088D+00

 Vector    5  Occ=1.000000D+00  E=-7.159088D+00

 Vector    6  Occ=1.000000D+00  E=-8.011340D-01

 Vector    7  Occ=1.000000D+00  E=-3.679272D-01

 Vector    8  Occ=1.000000D+00  E=-3.679267D-01

 Vector    9  Occ=0.000000D+00  E=-3.574403D-01

 Vector   10  Occ=0.000000D+00  E= 9.842564D-03

 Vector   11  Occ=0.000000D+00  E= 6.587356D-02

 Vector   12  Occ=0.000000D+00  E= 6.587362D-02

 Vector   13  Occ=0.000000D+00  E= 6.991115D-02

 Vector   14  Occ=0.000000D+00  E= 1.679722D-01

 Vector   15  Occ=0.000000D+00  E= 1.679725D-01

 Vector   16  Occ=0.000000D+00  E= 1.680815D-01

 Vector   17  Occ=0.000000D+00  E= 1.680815D-01

 Vector   18  Occ=0.000000D+00  E= 1.745195D-01

 Vector   19  Occ=0.000000D+00  E= 3.399220D-01

 Vector   20  Occ=0.000000D+00  E= 3.778102D-01

 Vector   21  Occ=0.000000D+00  E= 3.778104D-01

 Vector   22  Occ=0.000000D+00  E= 3.887927D-01

 Vector   23  Occ=0.000000D+00  E= 9.846294D-01

 Total times  cpu:        1.4s     wall:        2.1s
