 Output coordinates in angstroms (scale by  1.889725989 to convert to a.u.)

  No.       Tag          Charge          X              Y              Z
 ---- ---------------- ---------- -------------- -------------- --------------
    1 Cl                  17.0000     0.00000000     0.00000000    -0.95047000
    2 Cl                  17.0000     0.00000000     0.00000000     0.95047000

         Total DFT energy =     -920.110034804247

                    DFT Final Alpha Molecular Orbital Analysis
                    ------------------------------------------

 Vector    6  Occ=1.000000D+00  E=-7.524883D+00

 Vector    7  Occ=1.000000D+00  E=-7.521401D+00

 Vector    8  Occ=1.000000D+00  E=-7.521382D+00

 Vector    9  Occ=1.000000D+00  E=-7.508165D+00

 Vector   10  Occ=1.000000D+00  E=-7.508147D+00

 Vector   11  Occ=1.000000D+00  E=-1.283249D+00

 Vector   12  Occ=1.000000D+00  E=-1.093155D+00

 Vector   13  Occ=1.000000D+00  E=-8.263211D-01

 Vector   14  Occ=1.000000D+00  E=-7.861354D-01

 Vector   15  Occ=1.000000D+00  E=-7.543237D-01

 Vector   16  Occ=1.000000D+00  E=-6.671471D-01

 Vector   17  Occ=1.000000D+00  E=-6.296280D-01

 Vector   18  Occ=0.000000D+00  E=-4.967793D-01

 Vector   19  Occ=0.000000D+00  E=-2.449666D-01

 Vector   20  Occ=0.000000D+00  E=-2.007209D-01

 Vector   21  Occ=0.000000D+00  E=-1.825605D-01

 Vector   22  Occ=0.000000D+00  E=-1.784185D-01

 Vector   23  Occ=0.000000D+00  E=-1.784133D-01

 Vector   24  Occ=0.000000D+00  E=-1.379172D-01

 Vector   25  Occ=0.000000D+00  E=-1.285883D-01

 Vector   26  Occ=0.000000D+00  E=-1.204116D-01

 Vector   27  Occ=0.000000D+00  E=-1.128515D-01

 Vector   28  Occ=0.000000D+00  E=-7.592344D-02

 Vector   29  Occ=0.000000D+00  E=-7.051055D-02

 Vector   30  Occ=0.000000D+00  E=-4.709496D-02

 Vector   31  Occ=0.000000D+00  E=-4.681953D-02

 Vector   32  Occ=0.000000D+00  E=-2.159036D-02

 Vector   33  Occ=0.000000D+00  E= 1.422261D-02

 Vector   34  Occ=0.000000D+00  E= 1.022709D-01

 Vector   35  Occ=0.000000D+00  E= 1.167279D-01

 Vector   36  Occ=0.000000D+00  E= 1.259999D-01

 Vector   37  Occ=0.000000D+00  E= 1.341460D-01

 Vector   38  Occ=0.000000D+00  E= 1.438207D-01

 Vector   39  Occ=0.000000D+00  E= 1.520770D-01

 Vector   40  Occ=0.000000D+00  E= 1.822491D-01

 Vector   41  Occ=0.000000D+00  E= 2.229614D-01

 Vector   42  Occ=0.000000D+00  E= 2.316033D-01

 Vector   43  Occ=0.000000D+00  E= 2.428368D-01

 Vector   44  Occ=0.000000D+00  E= 5.045073D-01

 Vector    6  Occ=1.000000D+00  E=-7.523164D+00

 Vector    7  Occ=1.000000D+00  E=-7.511678D+00

 Vector    8  Occ=1.000000D+00  E=-7.511659D+00

 Vector    9  Occ=1.000000D+00  E=-7.506406D+00

 Vector   10  Occ=1.000000D+00  E=-7.506388D+00

 Vector   11  Occ=1.000000D+00  E=-1.270623D+00

 Vector   12  Occ=1.000000D+00  E=-1.070486D+00

 Vector   13  Occ=1.000000D+00  E=-8.188971D-01

 Vector   14  Occ=1.000000D+00  E=-7.513203D-01

 Vector   15  Occ=1.000000D+00  E=-7.509369D-01

 Vector   16  Occ=1.000000D+00  E=-6.252929D-01

 Vector   17  Occ=0.000000D+00  E=-6.203298D-01

 Vector   18  Occ=0.000000D+00  E=-4.890936D-01

 Vector   19  Occ=0.000000D+00  E=-2.405018D-01

 Vector   20  Occ=0.000000D+00  E=-1.852117D-01

 Vector   21  Occ=0.000000D+00  E=-1.826698D-01

 Vector   22  Occ=0.000000D+00  E=-1.663939D-01

 Vector   23  Occ=0.000000D+00  E=-1.653923D-01

 Vector   24  Occ=0.000000D+00  E=-1.330896D-01

 Vector   25  Occ=0.000000D+00  E=-1.244112D-01

 Vector   26  Occ=0.000000D+00  E=-1.122880D-01

 Vector   27  Occ=0.000000D+00  E=-1.116354D-01

 Vector   28  Occ=0.000000D+00  E=-6.898228D-02

 Vector   29  Occ=0.000000D+00  E=-6.678761D-02

 Vector   30  Occ=0.000000D+00  E=-3.098592D-02

 Vector   31  Occ=0.000000D+00  E=-2.970100D-02

 Vector   32  Occ=0.000000D+00  E=-1.884339D-02

 Vector   33  Occ=0.000000D+00  E= 1.781466D-02

 Vector   34  Occ=0.000000D+00  E= 1.175756D-01

 Vector   35  Occ=0.000000D+00  E= 1.177452D-01

 Vector   36  Occ=0.000000D+00  E= 1.310788D-01

 Vector   37  Occ=0.000000D+00  E= 1.373474D-01

 Vector   38  Occ=0.000000D+00  E= 1.537514D-01

 Vector   39  Occ=0.000000D+00  E= 1.537517D-01

 Vector   40  Occ=0.000000D+00  E= 1.870827D-01

 Vector   41  Occ=0.000000D+00  E= 2.259856D-01

 Vector   42  Occ=0.000000D+00  E= 2.445615D-01

 Vector   43  Occ=0.000000D+00  E= 2.457620D-01

 Vector   44  Occ=0.000000D+00  E= 5.124370D-01

     Multipole analysis of the density
     ---------------------------------

     L   x y z        total         alpha         beta         nuclear
     -   - - -        -----         -----         ----         -------
     0   0 0 0      1.000000    -17.000000    -16.000000     34.000000

     1   1 0 0      0.000000      0.000000     -0.000000      0.000000
     1   0 1 0      0.000000      0.000000     -0.000000      0.000000
     1   0 0 1      0.000000     -0.000000      0.000000      0.000000

     2   2 0 0    -16.324078     -8.817940     -7.506138      0.000000
     2   1 1 0      0.630535     -0.074528      0.705063      0.000000
     2   1 0 1      0.000000      0.000000      0.000000      0.000000
     2   0 2 0    -16.280149     -8.823132     -7.457016      0.000000
     2   0 1 1     -0.000000     -0.000000      0.000000      0.000000

 Total times  cpu:        4.7s     wall:        5.8s
