 Output coordinates in angstroms (scale by  1.889725989 to convert to a.u.)

  No.       Tag          Charge          X              Y              Z
 ---- ---------------- ---------- -------------- -------------- --------------
    1 Cl                  17.0000     0.00000000     0.00000000    -1.00391500
    2 Cl                  17.0000     0.00000000     0.00000000     1.00391500

         Total DFT energy =     -920.520279892380

                       DFT Final Molecular Orbital Analysis
                       ------------------------------------

 Vector    7  Occ=2.000000D+00  E=-7.171221D+00

 Vector    8  Occ=2.000000D+00  E=-7.171221D+00

 Vector    9  Occ=2.000000D+00  E=-7.171213D+00

 Vector   10  Occ=2.000000D+00  E=-7.171213D+00

 Vector   11  Occ=2.000000D+00  E=-9.322608D-01

 Vector   12  Occ=2.000000D+00  E=-7.778502D-01

 Vector   13  Occ=2.000000D+00  E=-5.090540D-01

 Vector   14  Occ=2.000000D+00  E=-4.412044D-01

 Vector   15  Occ=2.000000D+00  E=-4.412044D-01

 Vector   16  Occ=2.000000D+00  E=-3.379358D-01

 Vector   17  Occ=2.000000D+00  E=-3.379358D-01

 Vector   18  Occ=0.000000D+00  E=-2.287697D-01

 Vector   19  Occ=0.000000D+00  E=-1.506273D-02

 Vector   20  Occ=0.000000D+00  E= 4.026378D-02

 Vector   21  Occ=0.000000D+00  E= 4.988742D-02

 Vector   22  Occ=0.000000D+00  E= 5.129086D-02

 Vector   23  Occ=0.000000D+00  E= 5.129086D-02

 Vector   24  Occ=0.000000D+00  E= 9.066244D-02

 Vector   25  Occ=0.000000D+00  E= 9.066244D-02

 Vector   26  Occ=0.000000D+00  E= 9.344189D-02

 Vector   27  Occ=0.000000D+00  E= 9.344189D-02

 Vector   28  Occ=0.000000D+00  E= 1.011114D-01

 Vector   29  Occ=0.000000D+00  E= 1.011118D-01

 Vector   30  Occ=0.000000D+00  E= 1.417733D-01

 Vector   31  Occ=0.000000D+00  E= 2.192506D-01

 Vector   32  Occ=0.000000D+00  E= 2.213579D-01

 Vector   33  Occ=0.000000D+00  E= 2.213593D-01

 Vector   34  Occ=0.000000D+00  E= 3.212578D-01

 Vector   35  Occ=0.000000D+00  E= 3.230256D-01

 Vector   36  Occ=0.000000D+00  E= 3.339603D-01

 Vector   37  Occ=0.000000D+00  E= 3.339603D-01

 Vector   38  Occ=0.000000D+00  E= 3.537451D-01

 Vector   39  Occ=0.000000D+00  E= 3.537451D-01

 Vector   40  Occ=0.000000D+00  E= 3.858723D-01

 Vector   41  Occ=0.000000D+00  E= 4.429000D-01

 Vector   42  Occ=0.000000D+00  E= 4.548160D-01

 Vector   43  Occ=0.000000D+00  E= 4.548160D-01

 Vector   44  Occ=0.000000D+00  E= 7.055212D-01

     Multipole analysis of the density
     ---------------------------------

     L   x y z        total         alpha         beta         nuclear
     -   - - -        -----         -----         ----         -------
     0   0 0 0     -0.000000    -17.000000    -17.000000     34.000000

     1   1 0 0      0.000000      0.000000      0.000000      0.000000
     1   0 1 0      0.000000      0.000000      0.000000      0.000000
     1   0 0 1     -0.000000     -0.000000     -0.000000      0.000000

     2   2 0 0    -19.273462     -9.636731     -9.636731      0.000000
     2   1 1 0      0.000000      0.000000      0.000000      0.000000
     2   1 0 1      0.000000      0.000000      0.000000      0.000000
     2   0 2 0    -19.273462     -9.636731     -9.636731      0.000000
     2   0 1 1      0.000000      0.000000      0.000000      0.000000

 Total times  cpu:        2.0s     wall:        2.7s
