 Output coordinates in angstroms (scale by  1.889725989 to convert to a.u.)

  No.       Tag          Charge          X              Y              Z
 ---- ---------------- ---------- -------------- -------------- --------------
    1 O                    8.0000     0.00000000     0.00000000     0.00000000

         Total DFT energy =      -74.580482362031

                    DFT Final Alpha Molecular Orbital Analysis
                    ------------------------------------------

 Vector    1  Occ=1.000000D+00  E=-1.978204D+01

 Vector    2  Occ=1.000000D+00  E=-1.605142D+00

 Vector    3  Occ=1.000000D+00  E=-1.028998D+00

 Vector    4  Occ=1.000000D+00  E=-1.028998D+00

 Vector    5  Occ=1.000000D+00  E=-1.028998D+00

 Vector    6  Occ=0.000000D+00  E=-2.247232D-01

 Vector    7  Occ=0.000000D+00  E=-1.338815D-01

 Vector    8  Occ=0.000000D+00  E=-1.338815D-01

 Vector    9  Occ=0.000000D+00  E=-1.338815D-01

 Vector   10  Occ=0.000000D+00  E= 2.691051D-01

 Vector   11  Occ=0.000000D+00  E= 2.691051D-01

 Vector   12  Occ=0.000000D+00  E= 2.691051D-01

 Vector   13  Occ=0.000000D+00  E= 2.691051D-01

 Vector   14  Occ=0.000000D+00  E= 2.691051D-01

 Vector   15  Occ=0.000000D+00  E= 3.487428D-01

 Vector   16  Occ=0.000000D+00  E= 4.830626D-01

 Vector   17  Occ=0.000000D+00  E= 4.830626D-01

 Vector   18  Occ=0.000000D+00  E= 4.830626D-01

 Vector   19  Occ=0.000000D+00  E= 1.905714D+00

 Vector    1  Occ=1.000000D+00  E=-1.969899D+01

 Vector    2  Occ=1.000000D+00  E=-1.411336D+00

 Vector    3  Occ=0.000000D+00  E=-8.269689D-01

 Vector    4  Occ=0.000000D+00  E=-8.269689D-01

 Vector    5  Occ=0.000000D+00  E=-8.269689D-01

 Vector    6  Occ=0.000000D+00  E=-1.826754D-01

 Vector    7  Occ=0.000000D+00  E=-9.554149D-02

 Vector    8  Occ=0.000000D+00  E=-9.554149D-02

 Vector    9  Occ=0.000000D+00  E=-9.554149D-02

 Vector   10  Occ=0.000000D+00  E= 3.288995D-01

 Vector   11  Occ=0.000000D+00  E= 3.288995D-01

 Vector   12  Occ=0.000000D+00  E= 3.288995D-01

 Vector   13  Occ=0.000000D+00  E= 3.288995D-01

 Vector   14  Occ=0.000000D+00  E= 3.288995D-01

 Vector   15  Occ=0.000000D+00  E= 4.071813D-01

 Vector   16  Occ=0.000000D+00  E= 5.798731D-01

 Total times  cpu:        0.6s     wall:        1.3s
