 Output coordinates in angstroms (scale by  1.889725989 to convert to a.u.)

  No.       Tag          Charge          X              Y              Z
 ---- ---------------- ---------- -------------- -------------- --------------
    1 O                    8.0000     0.00000000     0.00000000     0.00000000

         Total DFT energy =      -75.095153991881

                    DFT Final Alpha Molecular Orbital Analysis
                    ------------------------------------------

 Vector    1  Occ=1.000000D+00  E=-1.910548D+01

 Vector    2  Occ=1.000000D+00  E=-1.003639D+00

 Vector    3  Occ=1.000000D+00  E=-4.694885D-01

 Vector    4  Occ=1.000000D+00  E=-4.694885D-01

 Vector    5  Occ=1.000000D+00  E=-3.818376D-01

 Vector    6  Occ=0.000000D+00  E= 5.854217D-02

 Vector    7  Occ=0.000000D+00  E= 1.316609D-01

 Vector    8  Occ=0.000000D+00  E= 1.316609D-01

 Vector    9  Occ=0.000000D+00  E= 1.411109D-01

 Vector   10  Occ=0.000000D+00  E= 6.375634D-01

 Vector   11  Occ=0.000000D+00  E= 6.375635D-01

 Vector   12  Occ=0.000000D+00  E= 6.453801D-01

 Vector   13  Occ=0.000000D+00  E= 6.453801D-01

 Vector   14  Occ=0.000000D+00  E= 6.474289D-01

 Vector   15  Occ=0.000000D+00  E= 6.774534D-01

 Vector    1  Occ=1.000000D+00  E=-1.905470D+01

 Vector    2  Occ=1.000000D+00  E=-8.811997D-01

 Vector    3  Occ=1.000000D+00  E=-3.611081D-01

 Vector    4  Occ=0.000000D+00  E=-3.023998D-01

 Vector    5  Occ=0.000000D+00  E=-3.023993D-01

 Vector    6  Occ=0.000000D+00  E= 8.068832D-02

 Vector    7  Occ=0.000000D+00  E= 1.469121D-01

 Vector    8  Occ=0.000000D+00  E= 1.630140D-01

 Vector    9  Occ=0.000000D+00  E= 1.630140D-01

 Vector   10  Occ=0.000000D+00  E= 6.626760D-01

 Vector   11  Occ=0.000000D+00  E= 6.649439D-01

 Vector   12  Occ=0.000000D+00  E= 6.649440D-01

 Vector   13  Occ=0.000000D+00  E= 6.914390D-01

 Vector   14  Occ=0.000000D+00  E= 6.914391D-01

 Vector   15  Occ=0.000000D+00  E= 7.231952D-01

 Total times  cpu:        0.6s     wall:        1.2s
