 Output coordinates in angstroms (scale by  1.889725989 to convert to a.u.)

  No.       Tag          Charge          X              Y              Z
 ---- ---------------- ---------- -------------- -------------- --------------
    1 O                    8.0000     0.00000000     0.00000000    -0.55499500
    2 O                    8.0000     0.00000000     0.00000000     0.55499500

         Total DFT energy =     -149.950204709955

                    DFT Final Alpha Molecular Orbital Analysis
                    ------------------------------------------

 Vector    1  Occ=1.000000D+00  E=-1.962979D+01

 Vector    2  Occ=1.000000D+00  E=-1.962954D+01

 Vector    3  Occ=1.000000D+00  E=-1.841205D+00

 Vector    4  Occ=1.000000D+00  E=-1.246533D+00

 Vector    5  Occ=1.000000D+00  E=-1.065706D+00

 Vector    6  Occ=1.000000D+00  E=-1.056634D+00

 Vector    7  Occ=1.000000D+00  E=-1.021483D+00

 Vector    8  Occ=1.000000D+00  E=-7.359240D-01

 Vector    9  Occ=0.000000D+00  E=-7.172325D-01

 Vector   10  Occ=0.000000D+00  E=-2.133418D-01

 Vector   11  Occ=0.000000D+00  E=-1.982866D-01

 Vector   12  Occ=0.000000D+00  E=-1.216943D-01

 Vector   13  Occ=0.000000D+00  E=-1.216055D-01

 Vector   14  Occ=0.000000D+00  E=-7.892690D-02

 Vector   15  Occ=0.000000D+00  E=-5.360864D-02

 Vector   16  Occ=0.000000D+00  E=-1.268543D-02

 Vector   17  Occ=0.000000D+00  E=-1.021839D-02

 Vector   18  Occ=0.000000D+00  E= 1.139080D-01

 Vector   19  Occ=0.000000D+00  E= 1.581504D-01

 Vector   20  Occ=0.000000D+00  E= 1.588178D-01

 Vector   21  Occ=0.000000D+00  E= 3.376599D-01

 Vector   22  Occ=0.000000D+00  E= 4.036212D-01

 Vector   23  Occ=0.000000D+00  E= 4.072912D-01

 Vector   24  Occ=0.000000D+00  E= 4.482870D-01

 Vector   25  Occ=0.000000D+00  E= 4.865307D-01

 Vector   26  Occ=0.000000D+00  E= 4.934259D-01

 Vector   27  Occ=0.000000D+00  E= 4.987912D-01

 Vector   28  Occ=0.000000D+00  E= 5.332499D-01

 Vector    1  Occ=1.000000D+00  E=-1.961449D+01

 Vector    2  Occ=1.000000D+00  E=-1.961423D+01

 Vector    3  Occ=1.000000D+00  E=-1.824374D+00

 Vector    4  Occ=1.000000D+00  E=-1.214733D+00

 Vector    5  Occ=1.000000D+00  E=-1.049134D+00

 Vector    6  Occ=1.000000D+00  E=-1.009915D+00

 Vector    7  Occ=1.000000D+00  E=-9.982365D-01

 Vector    8  Occ=0.000000D+00  E=-7.063045D-01

 Vector    9  Occ=0.000000D+00  E=-6.468706D-01

 Vector   10  Occ=0.000000D+00  E=-1.962462D-01

 Vector   11  Occ=0.000000D+00  E=-1.934594D-01

 Vector   12  Occ=0.000000D+00  E=-1.197863D-01

 Vector   13  Occ=0.000000D+00  E=-1.112921D-01

 Vector   14  Occ=0.000000D+00  E=-7.316392D-02

 Vector   15  Occ=0.000000D+00  E=-5.182005D-02

 Vector   16  Occ=0.000000D+00  E=-7.979525D-03

 Vector   17  Occ=0.000000D+00  E=-1.552144D-03

 Vector   18  Occ=0.000000D+00  E= 1.181583D-01

 Vector   19  Occ=0.000000D+00  E= 1.683382D-01

 Vector   20  Occ=0.000000D+00  E= 1.684896D-01

 Vector   21  Occ=0.000000D+00  E= 3.418943D-01

 Vector   22  Occ=0.000000D+00  E= 4.037604D-01

 Vector   23  Occ=0.000000D+00  E= 4.199108D-01

 Vector   24  Occ=0.000000D+00  E= 4.536471D-01

 Vector   25  Occ=0.000000D+00  E= 4.931487D-01

 Vector   26  Occ=0.000000D+00  E= 5.038132D-01

     Multipole analysis of the density
     ---------------------------------

     L   x y z        total         alpha         beta         nuclear
     -   - - -        -----         -----         ----         -------
     0   0 0 0      1.000000     -8.000000     -7.000000     16.000000

     1   1 0 0     -0.000000     -0.000000     -0.000000      0.000000
     1   0 1 0     -0.000000     -0.000000     -0.000000      0.000000
     1   0 0 1      0.000000      0.000000      0.000000      0.000000

     2   2 0 0     -5.862829     -3.142649     -2.720181      0.000000
     2   1 1 0     -0.253028     -0.266958      0.013930      0.000000
     2   1 0 1      0.000000      0.000000      0.000000      0.000000
     2   0 2 0     -6.097105     -3.389823     -2.707282      0.000000
     2   0 1 1     -0.000000     -0.000000      0.000000      0.000000

 Total times  cpu:        1.7s     wall:        2.6s
