 Output coordinates in angstroms (scale by  1.889725989 to convert to a.u.)

  No.       Tag          Charge          X              Y              Z
 ---- ---------------- ---------- -------------- -------------- --------------
    1 O                    8.0000     0.00000000     0.00000000    -0.60066000
    2 O                    8.0000     0.00000000     0.00000000     0.60066000

         Total DFT energy =     -150.397914203759

                    DFT Final Alpha Molecular Orbital Analysis
                    ------------------------------------------

 Vector    1  Occ=1.000000D+00  E=-1.912370D+01

 Vector    2  Occ=1.000000D+00  E=-1.912362D+01

 Vector    3  Occ=1.000000D+00  E=-1.296073D+00

 Vector    4  Occ=1.000000D+00  E=-8.366018D-01

 Vector    5  Occ=1.000000D+00  E=-5.867787D-01

 Vector    6  Occ=1.000000D+00  E=-5.867787D-01

 Vector    7  Occ=1.000000D+00  E=-5.713796D-01

 Vector    8  Occ=1.000000D+00  E=-3.237127D-01

 Vector    9  Occ=1.000000D+00  E=-3.237127D-01

 Vector   10  Occ=0.000000D+00  E= 4.977972D-02

 Vector   11  Occ=0.000000D+00  E= 5.435682D-02

 Vector   12  Occ=0.000000D+00  E= 1.178637D-01

 Vector   13  Occ=0.000000D+00  E= 1.178637D-01

 Vector   14  Occ=0.000000D+00  E= 1.649477D-01

 Vector   15  Occ=0.000000D+00  E= 1.734112D-01

 Vector   16  Occ=0.000000D+00  E= 1.988080D-01

 Vector   17  Occ=0.000000D+00  E= 1.988080D-01

 Vector   18  Occ=0.000000D+00  E= 3.116014D-01

 Vector   19  Occ=0.000000D+00  E= 4.905384D-01

 Vector   20  Occ=0.000000D+00  E= 4.905396D-01

 Vector   21  Occ=0.000000D+00  E= 6.278327D-01

 Vector    1  Occ=1.000000D+00  E=-1.909561D+01

 Vector    2  Occ=1.000000D+00  E=-1.909552D+01

 Vector    3  Occ=1.000000D+00  E=-1.259459D+00

 Vector    4  Occ=1.000000D+00  E=-7.751459D-01

 Vector    5  Occ=1.000000D+00  E=-5.498179D-01

 Vector    6  Occ=1.000000D+00  E=-5.193135D-01

 Vector    7  Occ=1.000000D+00  E=-5.193135D-01

 Vector    8  Occ=0.000000D+00  E=-2.353279D-01

 Vector    9  Occ=0.000000D+00  E=-2.353279D-01

 Vector   10  Occ=0.000000D+00  E= 6.380879D-02

 Vector   11  Occ=0.000000D+00  E= 7.132458D-02

 Vector   12  Occ=0.000000D+00  E= 1.291794D-01

 Vector   13  Occ=0.000000D+00  E= 1.291794D-01

 Vector   14  Occ=0.000000D+00  E= 1.765310D-01

 Vector   15  Occ=0.000000D+00  E= 1.858045D-01

 Vector   16  Occ=0.000000D+00  E= 2.127899D-01

 Vector   17  Occ=0.000000D+00  E= 2.127899D-01

 Vector   18  Occ=0.000000D+00  E= 3.207337D-01

 Vector   19  Occ=0.000000D+00  E= 5.090937D-01

     Multipole analysis of the density
     ---------------------------------

     L   x y z        total         alpha         beta         nuclear
     -   - - -        -----         -----         ----         -------
     0   0 0 0     -0.000000     -9.000000     -7.000000     16.000000

     1   1 0 0      0.000000      0.000000      0.000000      0.000000
     1   0 1 0     -0.000000     -0.000000     -0.000000      0.000000
     1   0 0 1     -0.000003     -0.000000     -0.000002      0.000000

     2   2 0 0     -7.629487     -4.447004     -3.182483      0.000000
     2   1 1 0     -0.000000      0.000000     -0.000000      0.000000
     2   1 0 1     -0.000000     -0.000000     -0.000000      0.000000
     2   0 2 0     -7.629487     -4.447004     -3.182483      0.000000
     2   0 1 1      0.000000      0.000000      0.000000      0.000000

 Total times  cpu:        1.9s     wall:        2.7s
