 Output coordinates in angstroms (scale by  1.889725989 to convert to a.u.)

  No.       Tag          Charge          X              Y              Z
 ---- ---------------- ---------- -------------- -------------- --------------
    1 H                    1.0000     0.00000000     0.00000000    -0.91251556
    2 O                    8.0000     0.00000000     0.00000000     0.11406444

         Total DFT energy =      -75.290006627858

                    DFT Final Alpha Molecular Orbital Analysis
                    ------------------------------------------

 Vector    1  Occ=1.000000D+00  E=-1.962831D+01

 Vector    2  Occ=1.000000D+00  E=-1.540154D+00

 Vector    3  Occ=1.000000D+00  E=-9.681020D-01

 Vector    4  Occ=1.000000D+00  E=-9.451183D-01

 Vector    5  Occ=1.000000D+00  E=-9.451183D-01

 Vector    6  Occ=0.000000D+00  E=-3.722794D-01

 Vector    7  Occ=0.000000D+00  E=-1.596757D-01

 Vector    8  Occ=0.000000D+00  E=-1.254120D-01

 Vector    9  Occ=0.000000D+00  E=-1.254120D-01

 Vector   10  Occ=0.000000D+00  E=-8.705079D-02

 Vector   11  Occ=0.000000D+00  E=-2.760477D-02

 Vector   12  Occ=0.000000D+00  E= 2.927939D-02

 Vector   13  Occ=0.000000D+00  E= 2.927939D-02

 Vector   14  Occ=0.000000D+00  E= 1.294672D-01

 Vector   15  Occ=0.000000D+00  E= 2.872145D-01

 Vector   16  Occ=0.000000D+00  E= 2.872152D-01

 Vector   17  Occ=0.000000D+00  E= 3.471513D-01

 Vector   18  Occ=0.000000D+00  E= 5.002502D-01

 Vector    1  Occ=1.000000D+00  E=-1.957349D+01

 Vector    2  Occ=1.000000D+00  E=-1.421957D+00

 Vector    3  Occ=1.000000D+00  E=-9.439907D-01

 Vector    4  Occ=0.000000D+00  E=-7.564500D-01

 Vector    5  Occ=0.000000D+00  E=-7.564500D-01

 Vector    6  Occ=0.000000D+00  E=-3.409519D-01

 Vector    7  Occ=0.000000D+00  E=-1.422765D-01

 Vector    8  Occ=0.000000D+00  E=-9.314202D-02

 Vector    9  Occ=0.000000D+00  E=-9.314202D-02

 Vector   10  Occ=0.000000D+00  E=-7.844342D-02

 Vector   11  Occ=0.000000D+00  E=-1.453106D-02

 Vector   12  Occ=0.000000D+00  E= 4.055200D-02

 Vector   13  Occ=0.000000D+00  E= 4.055200D-02

 Vector   14  Occ=0.000000D+00  E= 1.403526D-01

 Vector   15  Occ=0.000000D+00  E= 3.422196D-01

 Vector   16  Occ=0.000000D+00  E= 3.422201D-01

 Vector   17  Occ=0.000000D+00  E= 3.604697D-01

 Vector   18  Occ=0.000000D+00  E= 5.321318D-01

     Multipole analysis of the density
     ---------------------------------

     L   x y z        total         alpha         beta         nuclear
     -   - - -        -----         -----         ----         -------
     0   0 0 0      1.000000     -5.000000     -3.000000      9.000000

     1   1 0 0      0.000000     -0.000000      0.000000      0.000000
     1   0 1 0     -0.000000     -0.000000     -0.000000      0.000000
     1   0 0 1     -0.791458     -0.572079     -0.219379      0.000000

     2   2 0 0     -3.071385     -2.182128     -0.889257      0.000000
     2   1 1 0     -0.000000     -0.000000     -0.000000      0.000000
     2   1 0 1      0.000000     -0.000000      0.000000      0.000000
     2   0 2 0     -3.071385     -2.182128     -0.889257      0.000000
     2   0 1 1     -0.000000      0.000000     -0.000000      0.000000

 Total times  cpu:        0.9s     wall:        1.6s
