 Output coordinates in angstroms (scale by  1.889725989 to convert to a.u.)

  No.       Tag          Charge          X              Y              Z
 ---- ---------------- ---------- -------------- -------------- --------------
    1 P                   15.0000     0.00000000     0.00000000     0.00000000

         Total DFT energy =     -340.931707210279

                    DFT Final Alpha Molecular Orbital Analysis
                    ------------------------------------------

 Vector    1  Occ=1.000000D+00  E=-7.710847D+01

 Vector    2  Occ=1.000000D+00  E=-6.883908D+00

 Vector    3  Occ=1.000000D+00  E=-5.071937D+00

 Vector    4  Occ=1.000000D+00  E=-5.063730D+00

 Vector    5  Occ=1.000000D+00  E=-5.063730D+00

 Vector    6  Occ=1.000000D+00  E=-9.378430D-01

 Vector    7  Occ=1.000000D+00  E=-6.028895D-01

 Vector    8  Occ=1.000000D+00  E=-6.028892D-01

 Vector    9  Occ=0.000000D+00  E=-6.005834D-01

 Vector   10  Occ=0.000000D+00  E=-1.892321D-01

 Vector   11  Occ=0.000000D+00  E=-1.774555D-01

 Vector   12  Occ=0.000000D+00  E=-1.774555D-01

 Vector   13  Occ=0.000000D+00  E=-1.757420D-01

 Vector   14  Occ=0.000000D+00  E=-1.757420D-01

 Vector   15  Occ=0.000000D+00  E=-1.731097D-01

 Vector   16  Occ=0.000000D+00  E=-1.205840D-01

 Vector   17  Occ=0.000000D+00  E=-1.205830D-01

 Vector   18  Occ=0.000000D+00  E=-1.184201D-01

 Vector   19  Occ=0.000000D+00  E= 5.456410D-02

 Vector   20  Occ=0.000000D+00  E= 5.656839D-02

 Vector   21  Occ=0.000000D+00  E= 5.656972D-02

 Vector   22  Occ=0.000000D+00  E= 5.799987D-02

 Vector   23  Occ=0.000000D+00  E= 4.528408D-01

 Vector   24  Occ=0.000000D+00  E= 4.565185D-01

 Vector   25  Occ=0.000000D+00  E= 4.565186D-01

 Vector   26  Occ=0.000000D+00  E= 4.577921D-01

 Vector   27  Occ=0.000000D+00  E= 4.577921D-01

 Vector   28  Occ=0.000000D+00  E= 6.015712D-01

 Vector    1  Occ=1.000000D+00  E=-7.709842D+01

 Vector    2  Occ=1.000000D+00  E=-6.875781D+00

 Vector    3  Occ=1.000000D+00  E=-5.067627D+00

 Vector    4  Occ=1.000000D+00  E=-5.047909D+00

 Vector    5  Occ=1.000000D+00  E=-5.047909D+00

 Vector    6  Occ=1.000000D+00  E=-8.722095D-01

 Vector    7  Occ=0.000000D+00  E=-5.881779D-01

 Vector    8  Occ=0.000000D+00  E=-5.302298D-01

 Vector    9  Occ=0.000000D+00  E=-5.302289D-01

 Vector   10  Occ=0.000000D+00  E=-1.704226D-01

 Vector   11  Occ=0.000000D+00  E=-1.523091D-01

 Vector   12  Occ=0.000000D+00  E=-1.506837D-01

 Vector   13  Occ=0.000000D+00  E=-1.506833D-01

 Vector   14  Occ=0.000000D+00  E=-1.351206D-01

 Vector   15  Occ=0.000000D+00  E=-1.351206D-01

 Vector   16  Occ=0.000000D+00  E=-1.044107D-01

 Vector   17  Occ=0.000000D+00  E=-9.293753D-02

 Vector   18  Occ=0.000000D+00  E=-9.293672D-02

 Vector   19  Occ=0.000000D+00  E= 6.857613D-02

 Vector   20  Occ=0.000000D+00  E= 7.288171D-02

 Vector   21  Occ=0.000000D+00  E= 8.403792D-02

 Vector   22  Occ=0.000000D+00  E= 8.403912D-02

 Vector   23  Occ=0.000000D+00  E= 4.849676D-01

 Vector   24  Occ=0.000000D+00  E= 5.012391D-01

 Total times  cpu:        1.4s     wall:        2.4s
