 Output coordinates in angstroms (scale by  1.889725989 to convert to a.u.)

  No.       Tag          Charge          X              Y              Z
 ---- ---------------- ---------- -------------- -------------- --------------
    1 P                   15.0000     0.00000000     0.00000000     0.00000000

         Total DFT energy =     -341.316169119082

                    DFT Final Alpha Molecular Orbital Analysis
                    ------------------------------------------

 Vector    1  Occ=1.000000D+00  E=-7.670469D+01

 Vector    2  Occ=1.000000D+00  E=-6.489296D+00

 Vector    3  Occ=1.000000D+00  E=-4.671772D+00

 Vector    4  Occ=1.000000D+00  E=-4.671772D+00

 Vector    5  Occ=1.000000D+00  E=-4.671772D+00

 Vector    6  Occ=1.000000D+00  E=-5.958890D-01

 Vector    7  Occ=1.000000D+00  E=-2.808657D-01

 Vector    8  Occ=1.000000D+00  E=-2.808657D-01

 Vector    9  Occ=1.000000D+00  E=-2.808657D-01

 Vector   10  Occ=0.000000D+00  E=-7.831618D-03

 Vector   11  Occ=0.000000D+00  E= 3.642088D-02

 Vector   12  Occ=0.000000D+00  E= 3.642088D-02

 Vector   13  Occ=0.000000D+00  E= 3.642088D-02

 Vector   14  Occ=0.000000D+00  E= 9.114989D-02

 Vector   15  Occ=0.000000D+00  E= 9.114989D-02

 Vector   16  Occ=0.000000D+00  E= 9.114989D-02

 Vector   17  Occ=0.000000D+00  E= 9.114989D-02

 Vector   18  Occ=0.000000D+00  E= 9.114989D-02

 Vector   19  Occ=0.000000D+00  E= 2.375782D-01

 Vector   20  Occ=0.000000D+00  E= 2.430755D-01

 Vector   21  Occ=0.000000D+00  E= 2.430755D-01

 Vector   22  Occ=0.000000D+00  E= 2.430755D-01

 Vector   23  Occ=0.000000D+00  E= 7.658179D-01

 Vector    1  Occ=1.000000D+00  E=-7.669202D+01

 Vector    2  Occ=1.000000D+00  E=-6.478747D+00

 Vector    3  Occ=1.000000D+00  E=-4.656385D+00

 Vector    4  Occ=1.000000D+00  E=-4.656385D+00

 Vector    5  Occ=1.000000D+00  E=-4.656385D+00

 Vector    6  Occ=1.000000D+00  E=-5.046520D-01

 Vector    7  Occ=0.000000D+00  E=-2.169963D-01

 Vector    8  Occ=0.000000D+00  E=-2.169963D-01

 Vector    9  Occ=0.000000D+00  E=-2.169963D-01

 Vector   10  Occ=0.000000D+00  E= 2.242391D-02

 Vector   11  Occ=0.000000D+00  E= 6.280884D-02

 Vector   12  Occ=0.000000D+00  E= 6.280884D-02

 Vector   13  Occ=0.000000D+00  E= 6.280884D-02

 Vector   14  Occ=0.000000D+00  E= 1.149532D-01

 Vector   15  Occ=0.000000D+00  E= 1.149532D-01

 Vector   16  Occ=0.000000D+00  E= 1.149532D-01

 Vector   17  Occ=0.000000D+00  E= 1.149532D-01

 Vector   18  Occ=0.000000D+00  E= 1.149532D-01

 Vector   19  Occ=0.000000D+00  E= 2.588051D-01

 Vector   20  Occ=0.000000D+00  E= 2.775627D-01

 Vector   21  Occ=0.000000D+00  E= 2.775627D-01

 Vector   22  Occ=0.000000D+00  E= 2.775627D-01

 Vector   23  Occ=0.000000D+00  E= 8.482401D-01

 Total times  cpu:        1.0s     wall:        1.6s
