 Output coordinates in angstroms (scale by  1.889725989 to convert to a.u.)

  No.       Tag          Charge          X              Y              Z
 ---- ---------------- ---------- -------------- -------------- --------------
    1 P                   15.0000     0.00000000     0.00000000    -0.08891125
    2 H                    1.0000     0.00000000     0.00000000     1.33366875

         Total DFT energy =     -341.561225631641

                    DFT Final Alpha Molecular Orbital Analysis
                    ------------------------------------------

 Vector    1  Occ=1.000000D+00  E=-7.707662D+01

 Vector    2  Occ=1.000000D+00  E=-6.856481D+00

 Vector    3  Occ=1.000000D+00  E=-5.045852D+00

 Vector    4  Occ=1.000000D+00  E=-5.037799D+00

 Vector    5  Occ=1.000000D+00  E=-5.029633D+00

 Vector    6  Occ=1.000000D+00  E=-9.511367D-01

 Vector    7  Occ=1.000000D+00  E=-6.715627D-01

 Vector    8  Occ=1.000000D+00  E=-5.961581D-01

 Vector    9  Occ=0.000000D+00  E=-5.937538D-01

 Vector   10  Occ=0.000000D+00  E=-3.177490D-01

 Vector   11  Occ=0.000000D+00  E=-1.906220D-01

 Vector   12  Occ=0.000000D+00  E=-1.866873D-01

 Vector   13  Occ=0.000000D+00  E=-1.860289D-01

 Vector   14  Occ=0.000000D+00  E=-1.744764D-01

 Vector   15  Occ=0.000000D+00  E=-1.701611D-01

 Vector   16  Occ=0.000000D+00  E=-1.254788D-01

 Vector   17  Occ=0.000000D+00  E=-1.192097D-01

 Vector   18  Occ=0.000000D+00  E=-1.166925D-01

 Vector   19  Occ=0.000000D+00  E=-4.958657D-02

 Vector   20  Occ=0.000000D+00  E= 1.155827D-02

 Vector   21  Occ=0.000000D+00  E= 5.418537D-02

 Vector   22  Occ=0.000000D+00  E= 5.716948D-02

 Vector   23  Occ=0.000000D+00  E= 5.883521D-02

 Vector   24  Occ=0.000000D+00  E= 1.275009D-01

 Vector   25  Occ=0.000000D+00  E= 1.704553D-01

 Vector   26  Occ=0.000000D+00  E= 1.707496D-01

 Vector   27  Occ=0.000000D+00  E= 1.929339D-01

 Vector   28  Occ=0.000000D+00  E= 4.263321D-01

 Vector   29  Occ=0.000000D+00  E= 4.631351D-01

 Vector   30  Occ=0.000000D+00  E= 4.650916D-01

 Vector   31  Occ=0.000000D+00  E= 4.664623D-01

 Vector   32  Occ=0.000000D+00  E= 4.673903D-01

 Vector   33  Occ=0.000000D+00  E= 5.423852D-01

 Vector    1  Occ=1.000000D+00  E=-7.707171D+01

 Vector    2  Occ=1.000000D+00  E=-6.852375D+00

 Vector    3  Occ=1.000000D+00  E=-5.043648D+00

 Vector    4  Occ=1.000000D+00  E=-5.027194D+00

 Vector    5  Occ=1.000000D+00  E=-5.024421D+00

 Vector    6  Occ=1.000000D+00  E=-9.223599D-01

 Vector    7  Occ=1.000000D+00  E=-6.660185D-01

 Vector    8  Occ=0.000000D+00  E=-5.844266D-01

 Vector    9  Occ=0.000000D+00  E=-5.248453D-01

 Vector   10  Occ=0.000000D+00  E=-3.059876D-01

 Vector   11  Occ=0.000000D+00  E=-1.864454D-01

 Vector   12  Occ=0.000000D+00  E=-1.790635D-01

 Vector   13  Occ=0.000000D+00  E=-1.654958D-01

 Vector   14  Occ=0.000000D+00  E=-1.484190D-01

 Vector   15  Occ=0.000000D+00  E=-1.459741D-01

 Vector   16  Occ=0.000000D+00  E=-1.204023D-01

 Vector   17  Occ=0.000000D+00  E=-1.102443D-01

 Vector   18  Occ=0.000000D+00  E=-9.833598D-02

 Vector   19  Occ=0.000000D+00  E=-4.489907D-02

 Vector   20  Occ=0.000000D+00  E= 1.910840D-02

 Vector   21  Occ=0.000000D+00  E= 5.870300D-02

 Vector   22  Occ=0.000000D+00  E= 6.383111D-02

 Vector   23  Occ=0.000000D+00  E= 7.914534D-02

 Vector   24  Occ=0.000000D+00  E= 1.347732D-01

 Vector   25  Occ=0.000000D+00  E= 1.725036D-01

 Vector   26  Occ=0.000000D+00  E= 1.784367D-01

 Vector   27  Occ=0.000000D+00  E= 2.028135D-01

 Vector   28  Occ=0.000000D+00  E= 4.315480D-01

 Vector   29  Occ=0.000000D+00  E= 4.777490D-01

 Vector   30  Occ=0.000000D+00  E= 5.081049D-01

     Multipole analysis of the density
     ---------------------------------

     L   x y z        total         alpha         beta         nuclear
     -   - - -        -----         -----         ----         -------
     0   0 0 0      1.000000     -8.000000     -7.000000     16.000000

     1   1 0 0      0.000000     -0.000000      0.000000      0.000000
     1   0 1 0     -0.000000     -0.000000     -0.000000      0.000000
     1   0 0 1      0.287155      0.146198      0.140958      0.000000

     2   2 0 0     -8.323456     -5.813911     -2.509545      0.000000
     2   1 1 0     -0.111553     -0.125445      0.013892      0.000000
     2   1 0 1     -0.000000     -0.000000     -0.000000      0.000000
     2   0 2 0     -6.463810     -3.722675     -2.741135      0.000000
     2   0 1 1      0.000000     -0.000000      0.000000      0.000000

 Total times  cpu:        2.2s     wall:        2.9s
