 Output coordinates in angstroms (scale by  1.889725989 to convert to a.u.)

  No.       Tag          Charge          X              Y              Z
 ---- ---------------- ---------- -------------- -------------- --------------
    1 P                   15.0000     0.00000000     0.00000000    -0.08887625
    2 H                    1.0000     0.00000000     0.00000000     1.33314375

         Total DFT energy =     -341.937178475063

                    DFT Final Alpha Molecular Orbital Analysis
                    ------------------------------------------

 Vector    1  Occ=1.000000D+00  E=-7.668889D+01

 Vector    2  Occ=1.000000D+00  E=-6.476859D+00

 Vector    3  Occ=1.000000D+00  E=-4.660572D+00

 Vector    4  Occ=1.000000D+00  E=-4.660572D+00

 Vector    5  Occ=1.000000D+00  E=-4.653708D+00

 Vector    6  Occ=1.000000D+00  E=-6.224368D-01

 Vector    7  Occ=1.000000D+00  E=-3.621696D-01

 Vector    8  Occ=1.000000D+00  E=-2.828079D-01

 Vector    9  Occ=1.000000D+00  E=-2.828079D-01

 Vector   10  Occ=0.000000D+00  E=-5.018590D-02

 Vector   11  Occ=0.000000D+00  E=-2.004526D-03

 Vector   12  Occ=0.000000D+00  E= 3.351153D-02

 Vector   13  Occ=0.000000D+00  E= 3.684988D-02

 Vector   14  Occ=0.000000D+00  E= 3.684988D-02

 Vector   15  Occ=0.000000D+00  E= 7.491472D-02

 Vector   16  Occ=0.000000D+00  E= 7.491472D-02

 Vector   17  Occ=0.000000D+00  E= 8.822902D-02

 Vector   18  Occ=0.000000D+00  E= 8.823265D-02

 Vector   19  Occ=0.000000D+00  E= 8.977762D-02

 Vector   20  Occ=0.000000D+00  E= 2.001044D-01

 Vector   21  Occ=0.000000D+00  E= 2.322827D-01

 Vector   22  Occ=0.000000D+00  E= 2.416407D-01

 Vector   23  Occ=0.000000D+00  E= 2.416407D-01

 Vector   24  Occ=0.000000D+00  E= 3.336014D-01

 Vector   25  Occ=0.000000D+00  E= 3.902939D-01

 Vector   26  Occ=0.000000D+00  E= 3.902939D-01

 Vector   27  Occ=0.000000D+00  E= 4.002653D-01

 Vector   28  Occ=0.000000D+00  E= 6.512767D-01

 Vector    1  Occ=1.000000D+00  E=-7.668056D+01

 Vector    2  Occ=1.000000D+00  E=-6.469723D+00

 Vector    3  Occ=1.000000D+00  E=-4.649506D+00

 Vector    4  Occ=1.000000D+00  E=-4.647162D+00

 Vector    5  Occ=1.000000D+00  E=-4.647162D+00

 Vector    6  Occ=1.000000D+00  E=-5.709467D-01

 Vector    7  Occ=1.000000D+00  E=-3.486971D-01

 Vector    8  Occ=0.000000D+00  E=-2.188608D-01

 Vector    9  Occ=0.000000D+00  E=-2.188608D-01

 Vector   10  Occ=0.000000D+00  E=-3.251488D-02

 Vector   11  Occ=0.000000D+00  E= 1.247492D-02

 Vector   12  Occ=0.000000D+00  E= 4.046178D-02

 Vector   13  Occ=0.000000D+00  E= 5.761254D-02

 Vector   14  Occ=0.000000D+00  E= 5.761254D-02

 Vector   15  Occ=0.000000D+00  E= 8.706916D-02

 Vector   16  Occ=0.000000D+00  E= 8.706916D-02

 Vector   17  Occ=0.000000D+00  E= 9.969150D-02

 Vector   18  Occ=0.000000D+00  E= 1.174790D-01

 Vector   19  Occ=0.000000D+00  E= 1.174824D-01

 Vector   20  Occ=0.000000D+00  E= 2.099320D-01

 Vector   21  Occ=0.000000D+00  E= 2.399211D-01

 Vector   22  Occ=0.000000D+00  E= 2.716822D-01

 Vector   23  Occ=0.000000D+00  E= 2.716822D-01

 Vector   24  Occ=0.000000D+00  E= 3.458753D-01

 Vector   25  Occ=0.000000D+00  E= 3.913237D-01

 Vector   26  Occ=0.000000D+00  E= 3.913237D-01

 Vector   27  Occ=0.000000D+00  E= 4.121707D-01

 Vector   28  Occ=0.000000D+00  E= 6.629225D-01

     Multipole analysis of the density
     ---------------------------------

     L   x y z        total         alpha         beta         nuclear
     -   - - -        -----         -----         ----         -------
     0   0 0 0     -0.000000     -9.000000     -7.000000     16.000000

     1   1 0 0      0.000000      0.000000      0.000000      0.000000
     1   0 1 0      0.000000      0.000000      0.000000      0.000000
     1   0 0 1      0.184250      0.075816      0.108433      0.000000

     2   2 0 0    -10.892357     -8.003905     -2.888452      0.000000
     2   1 1 0      0.000000      0.000000      0.000000      0.000000
     2   1 0 1     -0.000000      0.000000     -0.000000      0.000000
     2   0 2 0    -10.892357     -8.003905     -2.888452      0.000000
     2   0 1 1     -0.000000     -0.000000     -0.000000      0.000000

 Total times  cpu:        1.8s     wall:        2.6s
