 Output coordinates in angstroms (scale by  1.889725989 to convert to a.u.)

  No.       Tag          Charge          X              Y              Z
 ---- ---------------- ---------- -------------- -------------- --------------
    1 P                   15.0000    -0.08328059     0.00000000    -0.07934294
    2 H                    1.0000    -0.08328059     0.00000000     1.33808706
    3 H                    1.0000     1.33248941     0.00000000    -0.14794294

         Total DFT energy =     -342.197547131168

                       DFT Final Molecular Orbital Analysis
                       ------------------------------------

 Vector    1  Occ=2.000000D+00  E=-7.704396D+01

 Vector    2  Occ=2.000000D+00  E=-6.828473D+00

 Vector    3  Occ=2.000000D+00  E=-5.019411D+00

 Vector    4  Occ=2.000000D+00  E=-5.004580D+00

 Vector    5  Occ=2.000000D+00  E=-5.001693D+00

 Vector    6  Occ=2.000000D+00  E=-9.577511D-01

 Vector    7  Occ=2.000000D+00  E=-7.065970D-01

 Vector    8  Occ=2.000000D+00  E=-6.323888D-01

 Vector    9  Occ=0.000000D+00  E=-5.865609D-01

 Vector   10  Occ=0.000000D+00  E=-3.302244D-01

 Vector   11  Occ=0.000000D+00  E=-2.892867D-01

 Vector   12  Occ=0.000000D+00  E=-1.991195D-01

 Vector   13  Occ=0.000000D+00  E=-1.875277D-01

 Vector   14  Occ=0.000000D+00  E=-1.805871D-01

 Vector   15  Occ=0.000000D+00  E=-1.791553D-01

 Vector   16  Occ=0.000000D+00  E=-1.315983D-01

 Vector   17  Occ=0.000000D+00  E=-1.181651D-01

 Vector   18  Occ=0.000000D+00  E=-1.149136D-01

 Vector   19  Occ=0.000000D+00  E=-5.267601D-02

 Vector   20  Occ=0.000000D+00  E=-4.542974D-02

 Vector   21  Occ=0.000000D+00  E= 5.207425D-03

 Vector   22  Occ=0.000000D+00  E= 3.499275D-02

 Vector   23  Occ=0.000000D+00  E= 5.351775D-02

 Vector   24  Occ=0.000000D+00  E= 5.997169D-02

 Vector   25  Occ=0.000000D+00  E= 9.174537D-02

 Vector   26  Occ=0.000000D+00  E= 1.075234D-01

 Vector   27  Occ=0.000000D+00  E= 1.535676D-01

 Vector   28  Occ=0.000000D+00  E= 1.666144D-01

 Vector   29  Occ=0.000000D+00  E= 1.949548D-01

 Vector   30  Occ=0.000000D+00  E= 1.995925D-01

 Vector   31  Occ=0.000000D+00  E= 2.400547D-01

 Vector   32  Occ=0.000000D+00  E= 2.422989D-01

 Vector   33  Occ=0.000000D+00  E= 4.291339D-01

 Vector   34  Occ=0.000000D+00  E= 4.736210D-01

 Vector   35  Occ=0.000000D+00  E= 4.748583D-01

 Vector   36  Occ=0.000000D+00  E= 4.791960D-01

 Vector   37  Occ=0.000000D+00  E= 4.833063D-01

 Vector   38  Occ=0.000000D+00  E= 5.516662D-01

     Multipole analysis of the density
     ---------------------------------

     L   x y z        total         alpha         beta         nuclear
     -   - - -        -----         -----         ----         -------
     0   0 0 0      1.000000     -8.000000     -8.000000     17.000000

     1   1 0 0      0.272259      0.136130      0.136130      0.000000
     1   0 1 0      0.000000      0.000000      0.000000      0.000000
     1   0 0 1      0.259386      0.129693      0.129693      0.000000

     2   2 0 0     -8.060283     -7.398545     -7.398545      6.736808
     2   1 1 0     -0.000000     -0.000000     -0.000000      0.000000
     2   1 0 1     -0.541562      0.103205      0.103205     -0.747971
     2   0 2 0     -7.174366     -3.587183     -3.587183      0.000000
     2   0 1 1     -0.000000     -0.000000     -0.000000      0.000000

 Total times  cpu:        1.7s     wall:        2.4s
