 Output coordinates in angstroms (scale by  1.889725989 to convert to a.u.)

  No.       Tag          Charge          X              Y              Z
 ---- ---------------- ---------- -------------- -------------- --------------
    1 P                   15.0000     0.00000000     0.00000000    -0.11565765
    2 H                    1.0000     1.02013000     0.00000000     0.86743235
    3 H                    1.0000    -1.02013000     0.00000000     0.86743235

         Total DFT energy =     -342.564283433668

                    DFT Final Alpha Molecular Orbital Analysis
                    ------------------------------------------

 Vector    1  Occ=1.000000D+00  E=-7.667132D+01

 Vector    2  Occ=1.000000D+00  E=-6.462876D+00

 Vector    3  Occ=1.000000D+00  E=-4.648049D+00

 Vector    4  Occ=1.000000D+00  E=-4.642281D+00

 Vector    5  Occ=1.000000D+00  E=-4.639625D+00

 Vector    6  Occ=1.000000D+00  E=-6.398215D-01

 Vector    7  Occ=1.000000D+00  E=-4.045357D-01

 Vector    8  Occ=1.000000D+00  E=-3.311105D-01

 Vector    9  Occ=1.000000D+00  E=-2.843685D-01

 Vector   10  Occ=0.000000D+00  E=-6.082359D-02

 Vector   11  Occ=0.000000D+00  E=-4.476747D-02

 Vector   12  Occ=0.000000D+00  E= 1.205507D-02

 Vector   13  Occ=0.000000D+00  E= 2.965129D-02

 Vector   14  Occ=0.000000D+00  E= 3.671984D-02

 Vector   15  Occ=0.000000D+00  E= 3.728799D-02

 Vector   16  Occ=0.000000D+00  E= 6.330830D-02

 Vector   17  Occ=0.000000D+00  E= 6.798372D-02

 Vector   18  Occ=0.000000D+00  E= 7.593380D-02

 Vector   19  Occ=0.000000D+00  E= 8.872621D-02

 Vector   20  Occ=0.000000D+00  E= 9.065368D-02

 Vector   21  Occ=0.000000D+00  E= 1.950412D-01

 Vector   22  Occ=0.000000D+00  E= 2.163190D-01

 Vector   23  Occ=0.000000D+00  E= 2.281161D-01

 Vector   24  Occ=0.000000D+00  E= 2.400746D-01

 Vector   25  Occ=0.000000D+00  E= 2.950656D-01

 Vector   26  Occ=0.000000D+00  E= 3.231196D-01

 Vector   27  Occ=0.000000D+00  E= 3.669656D-01

 Vector   28  Occ=0.000000D+00  E= 3.724784D-01

 Vector   29  Occ=0.000000D+00  E= 3.789774D-01

 Vector   30  Occ=0.000000D+00  E= 4.112364D-01

 Vector   31  Occ=0.000000D+00  E= 4.576113D-01

 Vector   32  Occ=0.000000D+00  E= 4.587546D-01

 Vector   33  Occ=0.000000D+00  E= 6.569992D-01

 Vector    1  Occ=1.000000D+00  E=-7.666716D+01

 Vector    2  Occ=1.000000D+00  E=-6.459262D+00

 Vector    3  Occ=1.000000D+00  E=-4.640046D+00

 Vector    4  Occ=1.000000D+00  E=-4.637518D+00

 Vector    5  Occ=1.000000D+00  E=-4.636739D+00

 Vector    6  Occ=1.000000D+00  E=-6.154160D-01

 Vector    7  Occ=1.000000D+00  E=-4.009568D-01

 Vector    8  Occ=1.000000D+00  E=-3.232950D-01

 Vector    9  Occ=0.000000D+00  E=-2.242357D-01

 Vector   10  Occ=0.000000D+00  E=-5.893746D-02

 Vector   11  Occ=0.000000D+00  E=-3.252755D-02

 Vector   12  Occ=0.000000D+00  E= 2.871683D-02

 Vector   13  Occ=0.000000D+00  E= 3.291170D-02

 Vector   14  Occ=0.000000D+00  E= 3.968956D-02

 Vector   15  Occ=0.000000D+00  E= 5.326058D-02

 Vector   16  Occ=0.000000D+00  E= 6.430771D-02

 Vector   17  Occ=0.000000D+00  E= 8.370998D-02

 Vector   18  Occ=0.000000D+00  E= 9.058917D-02

 Vector   19  Occ=0.000000D+00  E= 9.225361D-02

 Vector   20  Occ=0.000000D+00  E= 9.542255D-02

 Vector   21  Occ=0.000000D+00  E= 2.096393D-01

 Vector   22  Occ=0.000000D+00  E= 2.204372D-01

 Vector   23  Occ=0.000000D+00  E= 2.317282D-01

 Vector   24  Occ=0.000000D+00  E= 2.649338D-01

 Vector   25  Occ=0.000000D+00  E= 2.959445D-01

 Vector   26  Occ=0.000000D+00  E= 3.250237D-01

 Vector   27  Occ=0.000000D+00  E= 3.669263D-01

 Vector   28  Occ=0.000000D+00  E= 3.731453D-01

 Vector   29  Occ=0.000000D+00  E= 3.885569D-01

 Vector   30  Occ=0.000000D+00  E= 4.170950D-01

 Vector   31  Occ=0.000000D+00  E= 4.621853D-01

 Vector   32  Occ=0.000000D+00  E= 4.638972D-01

 Vector   33  Occ=0.000000D+00  E= 6.730483D-01

     Multipole analysis of the density
     ---------------------------------

     L   x y z        total         alpha         beta         nuclear
     -   - - -        -----         -----         ----         -------
     0   0 0 0     -0.000000     -9.000000     -8.000000     17.000000

     1   1 0 0      0.000000      0.000000      0.000000      0.000000
     1   0 1 0     -0.000000     -0.000000     -0.000000      0.000000
     1   0 0 1      0.238514      0.119547      0.118967      0.000000

     2   2 0 0    -10.722473     -9.637431     -8.517606      7.432565
     2   1 1 0     -0.000000      0.000000     -0.000000      0.000000
     2   1 0 1     -0.000000     -0.000000     -0.000000      0.000000
     2   0 2 0    -11.590135     -7.804954     -3.785181      0.000000
     2   0 1 1      0.000000     -0.000000      0.000000      0.000000

 Total times  cpu:        3.0s     wall:        3.9s
