 Output coordinates in angstroms (scale by  1.889725989 to convert to a.u.)

  No.       Tag          Charge          X              Y              Z
 ---- ---------------- ---------- -------------- -------------- --------------
    1 S                   16.0000     0.00000000     0.00000000     0.00000000

         Total DFT energy =     -397.790336558444

                    DFT Final Alpha Molecular Orbital Analysis
                    ------------------------------------------

 Vector    1  Occ=1.000000D+00  E=-8.892170D+01

 Vector    2  Occ=1.000000D+00  E=-8.302227D+00

 Vector    3  Occ=1.000000D+00  E=-6.285987D+00

 Vector    4  Occ=1.000000D+00  E=-6.285987D+00

 Vector    5  Occ=1.000000D+00  E=-6.285987D+00

 Vector    6  Occ=1.000000D+00  E=-1.118112D+00

 Vector    7  Occ=1.000000D+00  E=-7.160050D-01

 Vector    8  Occ=1.000000D+00  E=-7.160050D-01

 Vector    9  Occ=1.000000D+00  E=-7.160050D-01

 Vector   10  Occ=0.000000D+00  E=-2.061981D-01

 Vector   11  Occ=0.000000D+00  E=-1.900791D-01

 Vector   12  Occ=0.000000D+00  E=-1.900791D-01

 Vector   13  Occ=0.000000D+00  E=-1.900791D-01

 Vector   14  Occ=0.000000D+00  E=-1.900791D-01

 Vector   15  Occ=0.000000D+00  E=-1.900791D-01

 Vector   16  Occ=0.000000D+00  E=-1.282210D-01

 Vector   17  Occ=0.000000D+00  E=-1.282210D-01

 Vector   18  Occ=0.000000D+00  E=-1.282210D-01

 Vector   19  Occ=0.000000D+00  E= 6.953610D-02

 Vector   20  Occ=0.000000D+00  E= 6.953610D-02

 Vector   21  Occ=0.000000D+00  E= 6.953610D-02

 Vector   22  Occ=0.000000D+00  E= 7.529217D-02

 Vector   23  Occ=0.000000D+00  E= 5.086899D-01

 Vector    1  Occ=1.000000D+00  E=-8.890344D+01

 Vector    2  Occ=1.000000D+00  E=-8.288128D+00

 Vector    3  Occ=1.000000D+00  E=-6.264658D+00

 Vector    4  Occ=1.000000D+00  E=-6.264658D+00

 Vector    5  Occ=1.000000D+00  E=-6.264658D+00

 Vector    6  Occ=1.000000D+00  E=-1.003577D+00

 Vector    7  Occ=0.000000D+00  E=-6.216303D-01

 Vector    8  Occ=0.000000D+00  E=-6.216303D-01

 Vector    9  Occ=0.000000D+00  E=-6.216303D-01

 Vector   10  Occ=0.000000D+00  E=-1.687288D-01

 Vector   11  Occ=0.000000D+00  E=-1.356163D-01

 Vector   12  Occ=0.000000D+00  E=-1.356163D-01

 Vector   13  Occ=0.000000D+00  E=-1.356163D-01

 Vector   14  Occ=0.000000D+00  E=-1.356163D-01

 Vector   15  Occ=0.000000D+00  E=-1.356163D-01

 Vector   16  Occ=0.000000D+00  E=-9.774469D-02

 Vector   17  Occ=0.000000D+00  E=-9.774469D-02

 Vector   18  Occ=0.000000D+00  E=-9.774469D-02

 Vector   19  Occ=0.000000D+00  E= 1.008980D-01

 Vector   20  Occ=0.000000D+00  E= 1.008980D-01

 Vector   21  Occ=0.000000D+00  E= 1.008980D-01

 Vector   22  Occ=0.000000D+00  E= 1.046019D-01

 Vector   23  Occ=0.000000D+00  E= 5.999565D-01

 Total times  cpu:        1.0s     wall:        1.8s
