 Output coordinates in angstroms (scale by  1.889725989 to convert to a.u.)

  No.       Tag          Charge          X              Y              Z
 ---- ---------------- ---------- -------------- -------------- --------------
    1 S                   16.0000     0.00000000     0.00000000     0.00000000

         Total DFT energy =     -398.172118865143

                    DFT Final Alpha Molecular Orbital Analysis
                    ------------------------------------------

 Vector    1  Occ=1.000000D+00  E=-8.849249D+01

 Vector    2  Occ=1.000000D+00  E=-7.883161D+00

 Vector    3  Occ=1.000000D+00  E=-5.870610D+00

 Vector    4  Occ=1.000000D+00  E=-5.870610D+00

 Vector    5  Occ=1.000000D+00  E=-5.852722D+00

 Vector    6  Occ=1.000000D+00  E=-7.215924D-01

 Vector    7  Occ=1.000000D+00  E=-3.604885D-01

 Vector    8  Occ=1.000000D+00  E=-3.604884D-01

 Vector    9  Occ=1.000000D+00  E=-3.031034D-01

 Vector   10  Occ=0.000000D+00  E=-5.890331D-03

 Vector   11  Occ=0.000000D+00  E= 4.276790D-02

 Vector   12  Occ=0.000000D+00  E= 4.280157D-02

 Vector   13  Occ=0.000000D+00  E= 4.920916D-02

 Vector   14  Occ=0.000000D+00  E= 1.019710D-01

 Vector   15  Occ=0.000000D+00  E= 1.019710D-01

 Vector   16  Occ=0.000000D+00  E= 1.239601D-01

 Vector   17  Occ=0.000000D+00  E= 1.239602D-01

 Vector   18  Occ=0.000000D+00  E= 1.345331D-01

 Vector   19  Occ=0.000000D+00  E= 2.685330D-01

 Vector   20  Occ=0.000000D+00  E= 2.685680D-01

 Vector   21  Occ=0.000000D+00  E= 2.768257D-01

 Vector   22  Occ=0.000000D+00  E= 2.779295D-01

 Vector   23  Occ=0.000000D+00  E= 8.377183D-01

 Vector    1  Occ=1.000000D+00  E=-8.848171D+01

 Vector    2  Occ=1.000000D+00  E=-7.874492D+00

 Vector    3  Occ=1.000000D+00  E=-5.853921D+00

 Vector    4  Occ=1.000000D+00  E=-5.853921D+00

 Vector    5  Occ=1.000000D+00  E=-5.847180D+00

 Vector    6  Occ=1.000000D+00  E=-6.483859D-01

 Vector    7  Occ=1.000000D+00  E=-2.929869D-01

 Vector    8  Occ=0.000000D+00  E=-2.808080D-01

 Vector    9  Occ=0.000000D+00  E=-2.808080D-01

 Vector   10  Occ=0.000000D+00  E= 1.094104D-02

 Vector   11  Occ=0.000000D+00  E= 5.323109D-02

 Vector   12  Occ=0.000000D+00  E= 6.069116D-02

 Vector   13  Occ=0.000000D+00  E= 6.071988D-02

 Vector   14  Occ=0.000000D+00  E= 1.406706D-01

 Vector   15  Occ=0.000000D+00  E= 1.406707D-01

 Vector   16  Occ=0.000000D+00  E= 1.443737D-01

 Vector   17  Occ=0.000000D+00  E= 1.462158D-01

 Vector   18  Occ=0.000000D+00  E= 1.462159D-01

 Vector   19  Occ=0.000000D+00  E= 2.838059D-01

 Vector   20  Occ=0.000000D+00  E= 2.963067D-01

 Vector   21  Occ=0.000000D+00  E= 2.981027D-01

 Vector   22  Occ=0.000000D+00  E= 2.981314D-01

 Vector   23  Occ=0.000000D+00  E= 9.146528D-01

 Total times  cpu:        1.6s     wall:        2.6s
