 Output coordinates in angstroms (scale by  1.889725989 to convert to a.u.)

  No.       Tag          Charge          X              Y              Z
 ---- ---------------- ---------- -------------- -------------- --------------
    1 S                   16.0000     0.00000000     0.00000000    -0.91009500
    2 S                   16.0000     0.00000000     0.00000000     0.91009500

         Total DFT energy =     -796.174000617783

                    DFT Final Alpha Molecular Orbital Analysis
                    ------------------------------------------

 Vector    5  Occ=1.000000D+00  E=-6.182036D+00

 Vector    7  Occ=1.000000D+00  E=-6.178934D+00

 Vector    8  Occ=1.000000D+00  E=-6.177658D+00

 Vector    9  Occ=1.000000D+00  E=-6.177342D+00

 Vector   10  Occ=1.000000D+00  E=-6.177237D+00

 Vector   11  Occ=1.000000D+00  E=-1.149514D+00

 Vector   12  Occ=1.000000D+00  E=-9.195728D-01

 Vector   13  Occ=1.000000D+00  E=-7.127229D-01

 Vector   14  Occ=1.000000D+00  E=-7.004182D-01

 Vector   15  Occ=1.000000D+00  E=-6.974815D-01

 Vector   16  Occ=1.000000D+00  E=-5.474386D-01

 Vector   17  Occ=0.000000D+00  E=-5.446036D-01

 Vector   18  Occ=0.000000D+00  E=-3.439643D-01

 Vector   19  Occ=0.000000D+00  E=-2.476575D-01

 Vector   20  Occ=0.000000D+00  E=-2.006603D-01

 Vector   21  Occ=0.000000D+00  E=-1.998059D-01

 Vector   22  Occ=0.000000D+00  E=-1.817772D-01

 Vector   23  Occ=0.000000D+00  E=-1.796051D-01

 Vector   24  Occ=0.000000D+00  E=-1.341616D-01

 Vector   25  Occ=0.000000D+00  E=-1.209654D-01

 Vector   26  Occ=0.000000D+00  E=-1.125077D-01

 Vector   27  Occ=0.000000D+00  E=-1.115023D-01

 Vector   28  Occ=0.000000D+00  E=-7.183212D-02

 Vector   29  Occ=0.000000D+00  E=-6.964537D-02

 Vector   30  Occ=0.000000D+00  E=-5.215890D-02

 Vector   31  Occ=0.000000D+00  E=-5.104015D-02

 Vector   32  Occ=0.000000D+00  E=-1.877166D-02

 Vector   33  Occ=0.000000D+00  E=-3.269546D-03

 Vector   34  Occ=0.000000D+00  E= 7.254155D-02

 Vector   35  Occ=0.000000D+00  E= 7.277655D-02

 Vector   36  Occ=0.000000D+00  E= 7.381433D-02

 Vector   37  Occ=0.000000D+00  E= 9.331772D-02

 Vector   38  Occ=0.000000D+00  E= 1.023767D-01

 Vector   39  Occ=0.000000D+00  E= 1.034837D-01

 Vector   40  Occ=0.000000D+00  E= 1.817445D-01

 Vector   41  Occ=0.000000D+00  E= 1.842316D-01

 Vector   42  Occ=0.000000D+00  E= 1.851400D-01

 Vector   43  Occ=0.000000D+00  E= 1.999020D-01

 Vector   44  Occ=0.000000D+00  E= 4.309347D-01

 Vector   45  Occ=0.000000D+00  E= 5.022397D-01

 Vector    5  Occ=1.000000D+00  E=-6.180609D+00

 Vector    6  Occ=1.000000D+00  E=-6.180504D+00

 Vector    7  Occ=1.000000D+00  E=-6.177494D+00

 Vector    8  Occ=1.000000D+00  E=-6.176214D+00

 Vector    9  Occ=1.000000D+00  E=-6.168999D+00

 Vector   10  Occ=1.000000D+00  E=-6.168893D+00

 Vector   11  Occ=1.000000D+00  E=-1.140708D+00

 Vector   12  Occ=1.000000D+00  E=-8.986332D-01

 Vector   13  Occ=1.000000D+00  E=-7.056618D-01

 Vector   14  Occ=1.000000D+00  E=-6.978419D-01

 Vector   15  Occ=1.000000D+00  E=-6.687550D-01

 Vector   16  Occ=0.000000D+00  E=-5.400084D-01

 Vector   17  Occ=0.000000D+00  E=-5.020287D-01

 Vector   18  Occ=0.000000D+00  E=-3.383134D-01

 Vector   19  Occ=0.000000D+00  E=-2.452656D-01

 Vector   20  Occ=0.000000D+00  E=-1.889756D-01

 Vector   21  Occ=0.000000D+00  E=-1.888221D-01

 Vector   22  Occ=0.000000D+00  E=-1.821812D-01

 Vector   23  Occ=0.000000D+00  E=-1.667556D-01

 Vector   24  Occ=0.000000D+00  E=-1.275263D-01

 Vector   25  Occ=0.000000D+00  E=-1.158534D-01

 Vector   26  Occ=0.000000D+00  E=-1.112193D-01

 Vector   27  Occ=0.000000D+00  E=-1.008348D-01

 Vector   28  Occ=0.000000D+00  E=-6.704216D-02

 Vector   29  Occ=0.000000D+00  E=-6.171691D-02

 Vector   30  Occ=0.000000D+00  E=-3.507313D-02

 Vector   31  Occ=0.000000D+00  E=-3.505500D-02

 Vector   32  Occ=0.000000D+00  E=-1.526151D-02

 Vector   33  Occ=0.000000D+00  E=-5.276319D-04

 Vector   34  Occ=0.000000D+00  E= 7.392681D-02

 Vector   35  Occ=0.000000D+00  E= 7.542896D-02

 Vector   36  Occ=0.000000D+00  E= 8.124403D-02

 Vector   37  Occ=0.000000D+00  E= 9.767949D-02

 Vector   38  Occ=0.000000D+00  E= 1.052317D-01

 Vector   39  Occ=0.000000D+00  E= 1.142137D-01

 Vector   40  Occ=0.000000D+00  E= 1.848357D-01

 Vector   41  Occ=0.000000D+00  E= 1.850374D-01

 Vector   42  Occ=0.000000D+00  E= 1.993978D-01

 Vector   43  Occ=0.000000D+00  E= 2.055297D-01

 Vector   44  Occ=0.000000D+00  E= 4.358245D-01

 Vector   45  Occ=0.000000D+00  E= 5.076167D-01

     Multipole analysis of the density
     ---------------------------------

     L   x y z        total         alpha         beta         nuclear
     -   - - -        -----         -----         ----         -------
     0   0 0 0      1.000000    -16.000000    -15.000000     32.000000

     1   1 0 0     -0.000000     -0.000000     -0.000000      0.000000
     1   0 1 0      0.000000      0.000000      0.000000      0.000000
     1   0 0 1      0.000000      0.000000      0.000000      0.000000

     2   2 0 0    -16.375749     -9.124815     -7.250933      0.000000
     2   1 1 0     -0.740236     -0.845026      0.104790      0.000000
     2   1 0 1      0.000000      0.000000      0.000000      0.000000
     2   0 2 0    -16.109163     -8.820491     -7.288672      0.000000
     2   0 1 1      0.000000      0.000000      0.000000      0.000000

 Total times  cpu:        4.1s     wall:        4.9s
