 Output coordinates in angstroms (scale by  1.889725989 to convert to a.u.)

  No.       Tag          Charge          X              Y              Z
 ---- ---------------- ---------- -------------- -------------- --------------
    1 S                   16.0000     0.00000000     0.00000000    -0.94629500
    2 S                   16.0000     0.00000000     0.00000000     0.94629500

         Total DFT energy =     -796.520910930551

                    DFT Final Alpha Molecular Orbital Analysis
                    ------------------------------------------

 Vector    5  Occ=1.000000D+00  E=-5.863714D+00

 Vector    6  Occ=1.000000D+00  E=-5.862919D+00

 Vector    7  Occ=1.000000D+00  E=-5.862765D+00

 Vector    8  Occ=1.000000D+00  E=-5.862765D+00

 Vector    9  Occ=1.000000D+00  E=-5.862703D+00

 Vector   10  Occ=1.000000D+00  E=-5.862703D+00

 Vector   11  Occ=1.000000D+00  E=-8.374590D-01

 Vector   12  Occ=1.000000D+00  E=-6.401779D-01

 Vector   13  Occ=1.000000D+00  E=-4.260551D-01

 Vector   14  Occ=1.000000D+00  E=-4.086455D-01

 Vector   15  Occ=1.000000D+00  E=-4.086455D-01

 Vector   16  Occ=1.000000D+00  E=-2.770325D-01

 Vector   17  Occ=1.000000D+00  E=-2.770325D-01

 Vector   18  Occ=0.000000D+00  E=-1.002631D-01

 Vector   19  Occ=0.000000D+00  E=-3.059415D-02

 Vector   20  Occ=0.000000D+00  E= 2.922406D-02

 Vector   21  Occ=0.000000D+00  E= 2.922406D-02

 Vector   22  Occ=0.000000D+00  E= 3.183190D-02

 Vector   23  Occ=0.000000D+00  E= 3.483240D-02

 Vector   24  Occ=0.000000D+00  E= 5.001129D-02

 Vector   25  Occ=0.000000D+00  E= 5.001142D-02

 Vector   26  Occ=0.000000D+00  E= 7.175608D-02

 Vector   27  Occ=0.000000D+00  E= 7.175608D-02

 Vector   28  Occ=0.000000D+00  E= 8.892971D-02

 Vector   29  Occ=0.000000D+00  E= 8.892971D-02

 Vector   30  Occ=0.000000D+00  E= 1.225247D-01

 Vector   31  Occ=0.000000D+00  E= 1.680005D-01

 Vector   32  Occ=0.000000D+00  E= 1.850701D-01

 Vector   33  Occ=0.000000D+00  E= 1.850707D-01

 Vector   34  Occ=0.000000D+00  E= 2.310792D-01

 Vector   35  Occ=0.000000D+00  E= 2.512414D-01

 Vector   36  Occ=0.000000D+00  E= 2.512414D-01

 Vector   37  Occ=0.000000D+00  E= 2.681062D-01

 Vector   38  Occ=0.000000D+00  E= 2.816555D-01

 Vector   39  Occ=0.000000D+00  E= 2.816555D-01

 Vector   40  Occ=0.000000D+00  E= 3.794885D-01

 Vector   41  Occ=0.000000D+00  E= 3.925471D-01

 Vector   42  Occ=0.000000D+00  E= 3.957098D-01

 Vector   43  Occ=0.000000D+00  E= 3.957098D-01

 Vector   44  Occ=0.000000D+00  E= 6.084544D-01

 Vector    5  Occ=1.000000D+00  E=-5.860987D+00

 Vector    6  Occ=1.000000D+00  E=-5.860187D+00

 Vector    7  Occ=1.000000D+00  E=-5.853650D+00

 Vector    8  Occ=1.000000D+00  E=-5.853650D+00

 Vector    9  Occ=1.000000D+00  E=-5.853586D+00

 Vector   10  Occ=1.000000D+00  E=-5.853586D+00

 Vector   11  Occ=1.000000D+00  E=-8.189425D-01

 Vector   12  Occ=1.000000D+00  E=-5.999675D-01

 Vector   13  Occ=1.000000D+00  E=-4.133880D-01

 Vector   14  Occ=1.000000D+00  E=-3.791898D-01

 Vector   15  Occ=1.000000D+00  E=-3.791898D-01

 Vector   16  Occ=0.000000D+00  E=-2.318788D-01

 Vector   17  Occ=0.000000D+00  E=-2.318788D-01

 Vector   18  Occ=0.000000D+00  E=-8.916083D-02

 Vector   19  Occ=0.000000D+00  E=-2.492063D-02

 Vector   20  Occ=0.000000D+00  E= 3.594834D-02

 Vector   21  Occ=0.000000D+00  E= 3.594834D-02

 Vector   22  Occ=0.000000D+00  E= 3.966363D-02

 Vector   23  Occ=0.000000D+00  E= 4.197279D-02

 Vector   24  Occ=0.000000D+00  E= 6.881258D-02

 Vector   25  Occ=0.000000D+00  E= 6.881276D-02

 Vector   26  Occ=0.000000D+00  E= 8.203392D-02

 Vector   27  Occ=0.000000D+00  E= 8.203392D-02

 Vector   28  Occ=0.000000D+00  E= 1.015099D-01

 Vector   29  Occ=0.000000D+00  E= 1.015099D-01

 Vector   30  Occ=0.000000D+00  E= 1.295778D-01

 Vector   31  Occ=0.000000D+00  E= 1.749505D-01

 Vector   32  Occ=0.000000D+00  E= 2.124934D-01

 Vector   33  Occ=0.000000D+00  E= 2.124939D-01

 Vector   34  Occ=0.000000D+00  E= 2.369514D-01

 Vector   35  Occ=0.000000D+00  E= 2.628079D-01

 Vector   36  Occ=0.000000D+00  E= 2.628079D-01

 Vector   37  Occ=0.000000D+00  E= 2.764383D-01

 Vector   38  Occ=0.000000D+00  E= 2.966541D-01

 Vector   39  Occ=0.000000D+00  E= 2.966541D-01

 Vector   40  Occ=0.000000D+00  E= 3.902562D-01

 Vector   41  Occ=0.000000D+00  E= 3.990362D-01

 Vector   42  Occ=0.000000D+00  E= 4.087435D-01

 Vector   43  Occ=0.000000D+00  E= 4.087435D-01

 Vector   44  Occ=0.000000D+00  E= 6.171913D-01

     Multipole analysis of the density
     ---------------------------------

     L   x y z        total         alpha         beta         nuclear
     -   - - -        -----         -----         ----         -------
     0   0 0 0     -0.000000    -17.000000    -15.000000     32.000000

     1   1 0 0     -0.000000     -0.000000     -0.000000      0.000000
     1   0 1 0      0.000000      0.000000      0.000000      0.000000
     1   0 0 1     -0.000000     -0.000000     -0.000000      0.000000

     2   2 0 0    -19.667438    -11.713340     -7.954098      0.000000
     2   1 1 0     -0.000000      0.000000     -0.000000      0.000000
     2   1 0 1     -0.000000      0.000000     -0.000000      0.000000
     2   0 2 0    -19.667438    -11.713340     -7.954098      0.000000
     2   0 1 1     -0.000000     -0.000000     -0.000000      0.000000

 Total times  cpu:        3.6s     wall:        4.7s
