 Output coordinates in angstroms (scale by  1.889725989 to convert to a.u.)

  No.       Tag          Charge          X              Y              Z
 ---- ---------------- ---------- -------------- -------------- --------------
    1 S                   16.0000     0.00000000     0.00000000    -0.08007412
    2 H                    1.0000     0.00000000     0.00000000     1.28118588

         Total DFT energy =     -398.432813929803

                    DFT Final Alpha Molecular Orbital Analysis
                    ------------------------------------------

 Vector    1  Occ=1.000000D+00  E=-8.887467D+01

 Vector    2  Occ=1.000000D+00  E=-8.260993D+00

 Vector    3  Occ=1.000000D+00  E=-6.246487D+00

 Vector    4  Occ=1.000000D+00  E=-6.246487D+00

 Vector    5  Occ=1.000000D+00  E=-6.235994D+00

 Vector    6  Occ=1.000000D+00  E=-1.111830D+00

 Vector    7  Occ=1.000000D+00  E=-7.664636D-01

 Vector    8  Occ=1.000000D+00  E=-6.978227D-01

 Vector    9  Occ=1.000000D+00  E=-6.978227D-01

 Vector   10  Occ=0.000000D+00  E=-3.607012D-01

 Vector   11  Occ=0.000000D+00  E=-2.068596D-01

 Vector   12  Occ=0.000000D+00  E=-1.977148D-01

 Vector   13  Occ=0.000000D+00  E=-1.977148D-01

 Vector   14  Occ=0.000000D+00  E=-1.806590D-01

 Vector   15  Occ=0.000000D+00  E=-1.806578D-01

 Vector   16  Occ=0.000000D+00  E=-1.339698D-01

 Vector   17  Occ=0.000000D+00  E=-1.259073D-01

 Vector   18  Occ=0.000000D+00  E=-1.259073D-01

 Vector   19  Occ=0.000000D+00  E=-5.717016D-02

 Vector   20  Occ=0.000000D+00  E= 1.777188D-02

 Vector   21  Occ=0.000000D+00  E= 6.581818D-02

 Vector   22  Occ=0.000000D+00  E= 7.160370D-02

 Vector   23  Occ=0.000000D+00  E= 7.160370D-02

 Vector   24  Occ=0.000000D+00  E= 1.679198D-01

 Vector   25  Occ=0.000000D+00  E= 1.750332D-01

 Vector   26  Occ=0.000000D+00  E= 1.750332D-01

 Vector   27  Occ=0.000000D+00  E= 1.845784D-01

 Vector   28  Occ=0.000000D+00  E= 4.794652D-01

 Vector   29  Occ=0.000000D+00  E= 5.259427D-01

 Vector    1  Occ=1.000000D+00  E=-8.886275D+01

 Vector    2  Occ=1.000000D+00  E=-8.251494D+00

 Vector    3  Occ=1.000000D+00  E=-6.230080D+00

 Vector    4  Occ=1.000000D+00  E=-6.228117D+00

 Vector    5  Occ=1.000000D+00  E=-6.228117D+00

 Vector    6  Occ=1.000000D+00  E=-1.043478D+00

 Vector    7  Occ=1.000000D+00  E=-7.521613D-01

 Vector    8  Occ=0.000000D+00  E=-6.077356D-01

 Vector    9  Occ=0.000000D+00  E=-6.077356D-01

 Vector   10  Occ=0.000000D+00  E=-3.321444D-01

 Vector   11  Occ=0.000000D+00  E=-1.869589D-01

 Vector   12  Occ=0.000000D+00  E=-1.714549D-01

 Vector   13  Occ=0.000000D+00  E=-1.714549D-01

 Vector   14  Occ=0.000000D+00  E=-1.260325D-01

 Vector   15  Occ=0.000000D+00  E=-1.260319D-01

 Vector   16  Occ=0.000000D+00  E=-1.245754D-01

 Vector   17  Occ=0.000000D+00  E=-1.018959D-01

 Vector   18  Occ=0.000000D+00  E=-1.018959D-01

 Vector   19  Occ=0.000000D+00  E=-4.950614D-02

 Vector   20  Occ=0.000000D+00  E= 3.188375D-02

 Vector   21  Occ=0.000000D+00  E= 7.563407D-02

 Vector   22  Occ=0.000000D+00  E= 9.746980D-02

 Vector   23  Occ=0.000000D+00  E= 9.746980D-02

 Vector   24  Occ=0.000000D+00  E= 1.827091D-01

 Vector   25  Occ=0.000000D+00  E= 1.868049D-01

 Vector   26  Occ=0.000000D+00  E= 1.868049D-01

 Vector   27  Occ=0.000000D+00  E= 2.038504D-01

 Vector   28  Occ=0.000000D+00  E= 4.899819D-01

 Vector   29  Occ=0.000000D+00  E= 5.960969D-01

     Multipole analysis of the density
     ---------------------------------

     L   x y z        total         alpha         beta         nuclear
     -   - - -        -----         -----         ----         -------
     0   0 0 0      1.000000     -9.000000     -7.000000     17.000000

     1   1 0 0      0.000000      0.000000      0.000000      0.000000
     1   0 1 0      0.000000      0.000000      0.000000      0.000000
     1   0 0 1      0.469020      0.270390      0.198630      0.000000

     2   2 0 0     -7.727522     -5.566469     -2.161053      0.000000
     2   1 1 0     -0.000000     -0.000000      0.000000      0.000000
     2   1 0 1     -0.000000     -0.000000     -0.000000      0.000000
     2   0 2 0     -7.727522     -5.566469     -2.161053      0.000000
     2   0 1 1     -0.000000     -0.000000     -0.000000      0.000000

 Total times  cpu:        2.0s     wall:        2.6s
