 Output coordinates in angstroms (scale by  1.889725989 to convert to a.u.)

  No.       Tag          Charge          X              Y              Z
 ---- ---------------- ---------- -------------- -------------- --------------
    1 S                   16.0000     0.00000000     0.00000000    -0.07883529
    2 H                    1.0000     0.00000000     0.00000000     1.26136471

         Total DFT energy =     -398.810874103458

                    DFT Final Alpha Molecular Orbital Analysis
                    ------------------------------------------

 Vector    1  Occ=1.000000D+00  E=-8.846473D+01

 Vector    2  Occ=1.000000D+00  E=-7.860109D+00

 Vector    3  Occ=1.000000D+00  E=-5.849038D+00

 Vector    4  Occ=1.000000D+00  E=-5.839971D+00

 Vector    5  Occ=1.000000D+00  E=-5.831384D+00

 Vector    6  Occ=1.000000D+00  E=-7.372628D-01

 Vector    7  Occ=1.000000D+00  E=-4.311184D-01

 Vector    8  Occ=1.000000D+00  E=-3.558593D-01

 Vector    9  Occ=1.000000D+00  E=-2.998389D-01

 Vector   10  Occ=0.000000D+00  E=-6.475869D-02

 Vector   11  Occ=0.000000D+00  E= 8.705143D-04

 Vector   12  Occ=0.000000D+00  E= 3.917926D-02

 Vector   13  Occ=0.000000D+00  E= 4.286564D-02

 Vector   14  Occ=0.000000D+00  E= 4.907505D-02

 Vector   15  Occ=0.000000D+00  E= 8.318019D-02

 Vector   16  Occ=0.000000D+00  E= 9.099482D-02

 Vector   17  Occ=0.000000D+00  E= 1.036082D-01

 Vector   18  Occ=0.000000D+00  E= 1.233414D-01

 Vector   19  Occ=0.000000D+00  E= 1.260503D-01

 Vector   20  Occ=0.000000D+00  E= 2.255963D-01

 Vector   21  Occ=0.000000D+00  E= 2.565985D-01

 Vector   22  Occ=0.000000D+00  E= 2.677691D-01

 Vector   23  Occ=0.000000D+00  E= 2.758320D-01

 Vector   24  Occ=0.000000D+00  E= 3.837141D-01

 Vector   25  Occ=0.000000D+00  E= 4.113388D-01

 Vector   26  Occ=0.000000D+00  E= 4.128740D-01

 Vector   27  Occ=0.000000D+00  E= 4.180900D-01

 Vector   28  Occ=0.000000D+00  E= 7.080634D-01

 Vector    1  Occ=1.000000D+00  E=-8.845940D+01

 Vector    2  Occ=1.000000D+00  E=-7.855794D+00

 Vector    3  Occ=1.000000D+00  E=-5.837341D+00

 Vector    4  Occ=1.000000D+00  E=-5.835116D+00

 Vector    5  Occ=1.000000D+00  E=-5.828671D+00

 Vector    6  Occ=1.000000D+00  E=-7.053799D-01

 Vector    7  Occ=1.000000D+00  E=-4.231555D-01

 Vector    8  Occ=1.000000D+00  E=-2.932698D-01

 Vector    9  Occ=0.000000D+00  E=-2.841305D-01

 Vector   10  Occ=0.000000D+00  E=-5.444307D-02

 Vector   11  Occ=0.000000D+00  E= 7.478422D-03

 Vector   12  Occ=0.000000D+00  E= 4.231888D-02

 Vector   13  Occ=0.000000D+00  E= 5.098001D-02

 Vector   14  Occ=0.000000D+00  E= 5.661918D-02

 Vector   15  Occ=0.000000D+00  E= 9.476735D-02

 Vector   16  Occ=0.000000D+00  E= 1.023860D-01

 Vector   17  Occ=0.000000D+00  E= 1.027083D-01

 Vector   18  Occ=0.000000D+00  E= 1.425827D-01

 Vector   19  Occ=0.000000D+00  E= 1.466808D-01

 Vector   20  Occ=0.000000D+00  E= 2.303995D-01

 Vector   21  Occ=0.000000D+00  E= 2.611015D-01

 Vector   22  Occ=0.000000D+00  E= 2.796297D-01

 Vector   23  Occ=0.000000D+00  E= 2.920570D-01

 Vector   24  Occ=0.000000D+00  E= 3.922444D-01

 Vector   25  Occ=0.000000D+00  E= 4.168401D-01

 Vector   26  Occ=0.000000D+00  E= 4.173615D-01

 Vector   27  Occ=0.000000D+00  E= 4.192446D-01

 Vector   28  Occ=0.000000D+00  E= 7.128965D-01

     Multipole analysis of the density
     ---------------------------------

     L   x y z        total         alpha         beta         nuclear
     -   - - -        -----         -----         ----         -------
     0   0 0 0     -0.000000     -9.000000     -8.000000     17.000000

     1   1 0 0     -0.000000      0.000000     -0.000000      0.000000
     1   0 1 0     -0.000000      0.000000     -0.000000      0.000000
     1   0 0 1      0.325753      0.170487      0.155266      0.000000

     2   2 0 0     -9.966152     -6.506329     -3.459823      0.000000
     2   1 1 0      0.315932     -0.019997      0.335928      0.000000
     2   1 0 1     -0.000000     -0.000000     -0.000000      0.000000
     2   0 2 0    -11.919645     -6.382700     -5.536946      0.000000
     2   0 1 1      0.000000      0.000000      0.000000      0.000000

 Total times  cpu:        2.4s     wall:        3.3s
