 Output coordinates in angstroms (scale by  1.889725989 to convert to a.u.)

  No.       Tag          Charge          X              Y              Z
 ---- ---------------- ---------- -------------- -------------- --------------
    1 Si                  14.0000     0.00000000     0.00000000     0.00000000

         Total DFT energy =     -289.116929883843

                    DFT Final Alpha Molecular Orbital Analysis
                    ------------------------------------------

 Vector    1  Occ=1.000000D+00  E=-6.614348D+01

 Vector    2  Occ=1.000000D+00  E=-5.579719D+00

 Vector    3  Occ=1.000000D+00  E=-3.961314D+00

 Vector    4  Occ=1.000000D+00  E=-3.961314D+00

 Vector    5  Occ=1.000000D+00  E=-3.954308D+00

 Vector    6  Occ=1.000000D+00  E=-7.598464D-01

 Vector    7  Occ=1.000000D+00  E=-4.948908D-01

 Vector    8  Occ=0.000000D+00  E=-4.865625D-01

 Vector    9  Occ=0.000000D+00  E=-4.865625D-01

 Vector   10  Occ=0.000000D+00  E=-1.665450D-01

 Vector   11  Occ=0.000000D+00  E=-1.587996D-01

 Vector   12  Occ=0.000000D+00  E=-1.587996D-01

 Vector   13  Occ=0.000000D+00  E=-1.546103D-01

 Vector   14  Occ=0.000000D+00  E=-1.540020D-01

 Vector   15  Occ=0.000000D+00  E=-1.540020D-01

 Vector   16  Occ=0.000000D+00  E=-1.091008D-01

 Vector   17  Occ=0.000000D+00  E=-1.040714D-01

 Vector   18  Occ=0.000000D+00  E=-1.040714D-01

 Vector   19  Occ=0.000000D+00  E= 5.045446D-02

 Vector   20  Occ=0.000000D+00  E= 5.892548D-02

 Vector   21  Occ=0.000000D+00  E= 6.315176D-02

 Vector   22  Occ=0.000000D+00  E= 6.315177D-02

 Vector   23  Occ=0.000000D+00  E= 4.054580D-01

 Vector   24  Occ=0.000000D+00  E= 4.077322D-01

 Vector   25  Occ=0.000000D+00  E= 4.077322D-01

 Vector   26  Occ=0.000000D+00  E= 4.096967D-01

 Vector   27  Occ=0.000000D+00  E= 4.096967D-01

 Vector   28  Occ=0.000000D+00  E= 4.772731D-01

 Vector   29  Occ=0.000000D+00  E= 4.937018D-01

 Vector   30  Occ=0.000000D+00  E= 4.937018D-01

 Vector   31  Occ=0.000000D+00  E= 5.542115D-01

 Vector    1  Occ=1.000000D+00  E=-6.613954D+01

 Vector    2  Occ=1.000000D+00  E=-5.576480D+00

 Vector    3  Occ=1.000000D+00  E=-3.959770D+00

 Vector    4  Occ=1.000000D+00  E=-3.959770D+00

 Vector    5  Occ=1.000000D+00  E=-3.943563D+00

 Vector    6  Occ=1.000000D+00  E=-7.335700D-01

 Vector    7  Occ=0.000000D+00  E=-4.865350D-01

 Vector    8  Occ=0.000000D+00  E=-4.865350D-01

 Vector    9  Occ=0.000000D+00  E=-4.351016D-01

 Vector   10  Occ=0.000000D+00  E=-1.566885D-01

 Vector   11  Occ=0.000000D+00  E=-1.562309D-01

 Vector   12  Occ=0.000000D+00  E=-1.562309D-01

 Vector   13  Occ=0.000000D+00  E=-1.390585D-01

 Vector   14  Occ=0.000000D+00  E=-1.390585D-01

 Vector   15  Occ=0.000000D+00  E=-1.343171D-01

 Vector   16  Occ=0.000000D+00  E=-9.657705D-02

 Vector   17  Occ=0.000000D+00  E=-9.657705D-02

 Vector   18  Occ=0.000000D+00  E=-8.442699D-02

 Vector   19  Occ=0.000000D+00  E= 5.873186D-02

 Vector   20  Occ=0.000000D+00  E= 6.786347D-02

 Vector   21  Occ=0.000000D+00  E= 6.786347D-02

 Vector   22  Occ=0.000000D+00  E= 8.206395D-02

 Vector   23  Occ=0.000000D+00  E= 4.052789D-01

 Vector   24  Occ=0.000000D+00  E= 4.052789D-01

 Vector   25  Occ=0.000000D+00  E= 4.458537D-01

 Vector   26  Occ=0.000000D+00  E= 4.458537D-01

 Vector   27  Occ=0.000000D+00  E= 4.562937D-01

 Vector   28  Occ=0.000000D+00  E= 4.904277D-01

 Vector   29  Occ=0.000000D+00  E= 4.953843D-01

 Vector   30  Occ=0.000000D+00  E= 4.953843D-01

 Vector   31  Occ=0.000000D+00  E= 5.438612D-01

 Total times  cpu:        1.4s     wall:        2.0s
