 Output coordinates in angstroms (scale by  1.889725989 to convert to a.u.)

  No.       Tag          Charge          X              Y              Z
 ---- ---------------- ---------- -------------- -------------- --------------
    1 Si                  14.0000     0.00000000     0.00000000     0.00000000

         Total DFT energy =     -289.417938926920

                    DFT Final Alpha Molecular Orbital Analysis
                    ------------------------------------------

 Vector    1  Occ=1.000000D+00  E=-6.578761D+01

 Vector    2  Occ=1.000000D+00  E=-5.230949D+00

 Vector    3  Occ=1.000000D+00  E=-3.613974D+00

 Vector    4  Occ=1.000000D+00  E=-3.608580D+00

 Vector    5  Occ=1.000000D+00  E=-3.608580D+00

 Vector    6  Occ=1.000000D+00  E=-4.606658D-01

 Vector    7  Occ=1.000000D+00  E=-2.119951D-01

 Vector    8  Occ=1.000000D+00  E=-2.119948D-01

 Vector    9  Occ=0.000000D+00  E=-2.106792D-01

 Vector   10  Occ=0.000000D+00  E=-5.660743D-03

 Vector   11  Occ=0.000000D+00  E= 3.366168D-02

 Vector   12  Occ=0.000000D+00  E= 3.366221D-02

 Vector   13  Occ=0.000000D+00  E= 3.627422D-02

 Vector   14  Occ=0.000000D+00  E= 7.086179D-02

 Vector   15  Occ=0.000000D+00  E= 7.086183D-02

 Vector   16  Occ=0.000000D+00  E= 7.361407D-02

 Vector   17  Occ=0.000000D+00  E= 7.361407D-02

 Vector   18  Occ=0.000000D+00  E= 7.487776D-02

 Vector   19  Occ=0.000000D+00  E= 2.099294D-01

 Vector   20  Occ=0.000000D+00  E= 2.248454D-01

 Vector   21  Occ=0.000000D+00  E= 2.248457D-01

 Vector   22  Occ=0.000000D+00  E= 2.298439D-01

 Vector   23  Occ=0.000000D+00  E= 6.798503D-01

 Vector    1  Occ=1.000000D+00  E=-6.578134D+01

 Vector    2  Occ=1.000000D+00  E=-5.225473D+00

 Vector    3  Occ=1.000000D+00  E=-3.611246D+00

 Vector    4  Occ=1.000000D+00  E=-3.598340D+00

 Vector    5  Occ=1.000000D+00  E=-3.598340D+00

 Vector    6  Occ=1.000000D+00  E=-4.111052D-01

 Vector    7  Occ=0.000000D+00  E=-2.081218D-01

 Vector    8  Occ=0.000000D+00  E=-1.668969D-01

 Vector    9  Occ=0.000000D+00  E=-1.668969D-01

 Vector   10  Occ=0.000000D+00  E= 1.278369D-02

 Vector   11  Occ=0.000000D+00  E= 5.064279D-02

 Vector   12  Occ=0.000000D+00  E= 6.180832D-02

 Vector   13  Occ=0.000000D+00  E= 6.180838D-02

 Vector   14  Occ=0.000000D+00  E= 7.259706D-02

 Vector   15  Occ=0.000000D+00  E= 7.755298D-02

 Vector   16  Occ=0.000000D+00  E= 7.755313D-02

 Vector   17  Occ=0.000000D+00  E= 8.169275D-02

 Vector   18  Occ=0.000000D+00  E= 8.169275D-02

 Vector   19  Occ=0.000000D+00  E= 2.205629D-01

 Vector   20  Occ=0.000000D+00  E= 2.392543D-01

 Vector   21  Occ=0.000000D+00  E= 2.529661D-01

 Vector   22  Occ=0.000000D+00  E= 2.529666D-01

 Vector   23  Occ=0.000000D+00  E= 6.841350D-01

 Total times  cpu:        1.7s     wall:        2.7s
