         Total DFT energy =      -77.348800604031
         Total DFT energy =      -77.347998529768
         Total DFT energy =      -77.349168724015

 Vector   26  Occ=0.000000D+00  E= 2.970433D-01

 Vector   27  Occ=0.000000D+00  E= 4.062825D-01

 Vector   28  Occ=0.000000D+00  E= 4.062830D-01

 Vector   29  Occ=0.000000D+00  E= 4.315812D-01

 Vector   30  Occ=0.000000D+00  E= 4.315812D-01

 Vector   31  Occ=0.000000D+00  E= 4.402425D-01

 Vector   32  Occ=0.000000D+00  E= 4.445353D-01

 Vector   33  Occ=0.000000D+00  E= 4.445353D-01

 Vector   34  Occ=0.000000D+00  E= 4.895749D-01

 Vector   35  Occ=0.000000D+00  E= 5.654159D-01

         Total DFT energy =      -77.349197114347

 Vector    1  Occ=2.000000D+00  E=-1.007638D+01

 Vector    2  Occ=2.000000D+00  E=-1.007419D+01

 Vector    3  Occ=2.000000D+00  E=-7.589846D-01

 Vector    4  Occ=2.000000D+00  E=-5.829051D-01

 Vector    5  Occ=2.000000D+00  E=-5.094897D-01

 Vector    6  Occ=2.000000D+00  E=-3.381393D-01

 Vector    7  Occ=2.000000D+00  E=-3.381393D-01

 Vector    8  Occ=0.000000D+00  E=-7.767501D-02

 Vector    9  Occ=0.000000D+00  E=-7.767501D-02

 Vector   10  Occ=0.000000D+00  E=-3.310397D-03

 Vector   11  Occ=0.000000D+00  E=-1.205121D-03

 Vector   12  Occ=0.000000D+00  E= 2.767211D-02

 Vector   13  Occ=0.000000D+00  E= 5.807545D-02

 Vector   14  Occ=0.000000D+00  E= 5.807545D-02

 Vector   15  Occ=0.000000D+00  E= 8.186057D-02

 Vector   16  Occ=0.000000D+00  E= 1.101942D-01

 Vector   17  Occ=0.000000D+00  E= 1.155727D-01

 Vector   18  Occ=0.000000D+00  E= 1.155727D-01

 Vector   19  Occ=0.000000D+00  E= 1.367659D-01

 Vector   20  Occ=0.000000D+00  E= 2.046055D-01

 Vector   21  Occ=0.000000D+00  E= 2.113933D-01

 Vector   22  Occ=0.000000D+00  E= 2.113954D-01

 Vector   23  Occ=0.000000D+00  E= 2.892625D-01

 Vector   24  Occ=0.000000D+00  E= 2.892625D-01

 Vector   25  Occ=0.000000D+00  E= 2.923258D-01

 Vector   26  Occ=0.000000D+00  E= 2.973843D-01

 Vector   27  Occ=0.000000D+00  E= 4.064857D-01

 Vector   28  Occ=0.000000D+00  E= 4.064861D-01

 Vector   29  Occ=0.000000D+00  E= 4.314447D-01

 Vector   30  Occ=0.000000D+00  E= 4.314447D-01

 Vector   31  Occ=0.000000D+00  E= 4.404986D-01

 Vector   32  Occ=0.000000D+00  E= 4.453309D-01

 Vector   33  Occ=0.000000D+00  E= 4.453309D-01

 Vector   34  Occ=0.000000D+00  E= 4.904754D-01

 Vector   35  Occ=0.000000D+00  E= 5.656414D-01

         Total DFT energy =      -77.349196538478

                       DFT Final Molecular Orbital Analysis
                       ------------------------------------

 Vector    1  Occ=2.000000D+00  E=-1.007538D+01

 Vector    2  Occ=2.000000D+00  E=-1.007316D+01

 Vector    3  Occ=2.000000D+00  E=-7.595502D-01

 Vector    4  Occ=2.000000D+00  E=-5.838421D-01

 Vector    5  Occ=2.000000D+00  E=-5.104611D-01

 Vector    6  Occ=2.000000D+00  E=-3.385319D-01

 Vector    7  Occ=2.000000D+00  E=-3.385319D-01

 Vector    8  Occ=0.000000D+00  E=-7.717355D-02

 Vector    9  Occ=0.000000D+00  E=-7.717355D-02

 Vector   10  Occ=0.000000D+00  E=-2.278628D-03

 Vector   11  Occ=0.000000D+00  E=-1.176622D-03

 Vector   12  Occ=0.000000D+00  E= 2.847913D-02

 Vector   13  Occ=0.000000D+00  E= 5.811435D-02

 Vector   14  Occ=0.000000D+00  E= 5.811435D-02

 Vector   15  Occ=0.000000D+00  E= 8.320893D-02

 Vector   16  Occ=0.000000D+00  E= 1.104203D-01

 Vector   17  Occ=0.000000D+00  E= 1.157714D-01

 Vector   18  Occ=0.000000D+00  E= 1.157714D-01

 Vector   19  Occ=0.000000D+00  E= 1.368613D-01

 Vector   20  Occ=0.000000D+00  E= 2.049435D-01

 Vector   21  Occ=0.000000D+00  E= 2.115531D-01

 Vector   22  Occ=0.000000D+00  E= 2.115553D-01

 Vector   23  Occ=0.000000D+00  E= 2.902278D-01

 Vector   24  Occ=0.000000D+00  E= 2.902278D-01

 Vector   25  Occ=0.000000D+00  E= 2.929052D-01

 Vector   26  Occ=0.000000D+00  E= 2.980676D-01

 Vector   27  Occ=0.000000D+00  E= 4.069346D-01

 Vector   28  Occ=0.000000D+00  E= 4.069348D-01

 Vector   29  Occ=0.000000D+00  E= 4.311612D-01

 Vector   30  Occ=0.000000D+00  E= 4.311612D-01

 Vector   31  Occ=0.000000D+00  E= 4.410184D-01

 Vector   32  Occ=0.000000D+00  E= 4.469341D-01

 Vector   33  Occ=0.000000D+00  E= 4.469341D-01

 Vector   34  Occ=0.000000D+00  E= 4.922419D-01

 Vector   35  Occ=0.000000D+00  E= 5.661306D-01

     Multipole analysis of the density
     ---------------------------------

     L   x y z        total         alpha         beta         nuclear
     -   - - -        -----         -----         ----         -------
     0   0 0 0     -0.000000     -7.000000     -7.000000     14.000000

     1   1 0 0      0.000000      0.000000      0.000000      0.000000
     1   0 1 0      0.000000      0.000000      0.000000      0.000000
     1   0 0 1      0.000001     -0.000007     -0.000007      0.000015

     2   2 0 0    -10.632169     -5.316085     -5.316085      0.000000
     2   1 1 0      0.000000      0.000000      0.000000      0.000000
     2   1 0 1      0.000000      0.000000      0.000000      0.000000
     2   0 2 0    -10.632169     -5.316085     -5.316085      0.000000
     2   0 1 1      0.000000      0.000000      0.000000      0.000000

 Output coordinates in angstroms (scale by  1.889725989 to convert to a.u.)

  No.       Tag          Charge          X              Y              Z
 ---- ---------------- ---------- -------------- -------------- --------------
    1 C                    6.0000     0.00000000     0.00000000     0.59922051
    2 C                    6.0000     0.00000000     0.00000000    -0.59921893
    3 H                    1.0000     0.00000000     0.00000000    -1.66166070
    4 H                    1.0000     0.00000000     0.00000000     1.66165911

 Total times  cpu:       17.2s     wall:       21.4s
