         Total DFT energy =      -40.514243595408
         Total DFT energy =      -40.514228280913

 Vector   14  Occ=0.000000D+00  E= 1.475480D-01

 Vector   15  Occ=0.000000D+00  E= 1.475483D-01

 Vector   16  Occ=0.000000D+00  E= 1.475493D-01

 Vector   17  Occ=0.000000D+00  E= 1.872941D-01

 Vector   18  Occ=0.000000D+00  E= 1.872942D-01

 Vector   19  Occ=0.000000D+00  E= 2.231671D-01

 Vector   20  Occ=0.000000D+00  E= 2.629206D-01

 Vector   21  Occ=0.000000D+00  E= 2.629218D-01

 Vector   22  Occ=0.000000D+00  E= 2.629219D-01

 Vector   23  Occ=0.000000D+00  E= 4.360743D-01

 Vector   24  Occ=0.000000D+00  E= 4.490013D-01

 Vector   25  Occ=0.000000D+00  E= 4.490018D-01

 Vector   26  Occ=0.000000D+00  E= 4.490021D-01

 Vector   27  Occ=0.000000D+00  E= 4.892895D-01

 Vector   28  Occ=0.000000D+00  E= 4.892898D-01

 Vector   29  Occ=0.000000D+00  E= 4.892918D-01

 Vector   30  Occ=0.000000D+00  E= 4.913023D-01

 Vector   31  Occ=0.000000D+00  E= 5.134586D-01

         Total DFT energy =      -40.514120614897

 Vector    1  Occ=2.000000D+00  E=-1.003559D+01

 Vector    2  Occ=2.000000D+00  E=-6.980549D-01

 Vector    3  Occ=2.000000D+00  E=-4.094822D-01

 Vector    4  Occ=2.000000D+00  E=-4.094790D-01

 Vector    5  Occ=2.000000D+00  E=-4.094784D-01

 Vector    6  Occ=0.000000D+00  E=-1.931447D-02

 Vector    7  Occ=0.000000D+00  E= 3.345631D-02

 Vector    8  Occ=0.000000D+00  E= 3.345634D-02

 Vector    9  Occ=0.000000D+00  E= 3.345676D-02

 Vector   10  Occ=0.000000D+00  E= 5.887955D-02

 Vector   11  Occ=0.000000D+00  E= 5.888017D-02

 Vector   12  Occ=0.000000D+00  E= 5.888092D-02

 Vector   13  Occ=0.000000D+00  E= 9.665588D-02

 Vector   14  Occ=0.000000D+00  E= 1.482957D-01

 Vector   15  Occ=0.000000D+00  E= 1.482960D-01

 Vector   16  Occ=0.000000D+00  E= 1.482975D-01

 Vector   17  Occ=0.000000D+00  E= 1.880828D-01

 Vector   18  Occ=0.000000D+00  E= 1.880829D-01

 Vector   19  Occ=0.000000D+00  E= 2.243478D-01

 Vector   20  Occ=0.000000D+00  E= 2.631214D-01

 Vector   21  Occ=0.000000D+00  E= 2.631226D-01

 Vector   22  Occ=0.000000D+00  E= 2.631227D-01

 Vector   23  Occ=0.000000D+00  E= 4.368792D-01

 Vector   24  Occ=0.000000D+00  E= 4.504664D-01

 Vector   25  Occ=0.000000D+00  E= 4.504669D-01

 Vector   26  Occ=0.000000D+00  E= 4.504672D-01

 Vector   27  Occ=0.000000D+00  E= 4.898938D-01

 Vector   28  Occ=0.000000D+00  E= 4.898941D-01

 Vector   29  Occ=0.000000D+00  E= 4.898966D-01

 Vector   30  Occ=0.000000D+00  E= 4.933722D-01

 Vector   31  Occ=0.000000D+00  E= 5.148223D-01

         Total DFT energy =      -40.514123608935

                       DFT Final Molecular Orbital Analysis
                       ------------------------------------

 Vector    1  Occ=2.000000D+00  E=-1.003562D+01

 Vector    2  Occ=2.000000D+00  E=-6.980278D-01

 Vector    3  Occ=2.000000D+00  E=-4.094665D-01

 Vector    4  Occ=2.000000D+00  E=-4.094636D-01

 Vector    5  Occ=2.000000D+00  E=-4.094634D-01

 Vector    6  Occ=0.000000D+00  E=-1.932414D-02

 Vector    7  Occ=0.000000D+00  E= 3.345035D-02

 Vector    8  Occ=0.000000D+00  E= 3.345045D-02

 Vector    9  Occ=0.000000D+00  E= 3.345074D-02

 Vector   10  Occ=0.000000D+00  E= 5.886659D-02

 Vector   11  Occ=0.000000D+00  E= 5.886714D-02

 Vector   12  Occ=0.000000D+00  E= 5.886783D-02

 Vector   13  Occ=0.000000D+00  E= 9.664888D-02

 Vector   14  Occ=0.000000D+00  E= 1.482807D-01

 Vector   15  Occ=0.000000D+00  E= 1.482815D-01

 Vector   16  Occ=0.000000D+00  E= 1.482833D-01

 Vector   17  Occ=0.000000D+00  E= 1.880674D-01

 Vector   18  Occ=0.000000D+00  E= 1.880675D-01

 Vector   19  Occ=0.000000D+00  E= 2.243247D-01

 Vector   20  Occ=0.000000D+00  E= 2.631175D-01

 Vector   21  Occ=0.000000D+00  E= 2.631187D-01

 Vector   22  Occ=0.000000D+00  E= 2.631188D-01

 Vector   23  Occ=0.000000D+00  E= 4.368638D-01

 Vector   24  Occ=0.000000D+00  E= 4.504380D-01

 Vector   25  Occ=0.000000D+00  E= 4.504384D-01

 Vector   26  Occ=0.000000D+00  E= 4.504387D-01

 Vector   27  Occ=0.000000D+00  E= 4.898819D-01

 Vector   28  Occ=0.000000D+00  E= 4.898823D-01

 Vector   29  Occ=0.000000D+00  E= 4.898846D-01

 Vector   30  Occ=0.000000D+00  E= 4.933310D-01

 Vector   31  Occ=0.000000D+00  E= 5.147947D-01

     Multipole analysis of the density
     ---------------------------------

     L   x y z        total         alpha         beta         nuclear
     -   - - -        -----         -----         ----         -------
     0   0 0 0     -0.000000     -5.000000     -5.000000     10.000000

     1   1 0 0      0.000001      0.000003      0.000003     -0.000005
     1   0 1 0     -0.000000     -0.000000     -0.000000      0.000000
     1   0 0 1     -0.000005     -0.000022     -0.000022      0.000040

     2   2 0 0     -6.553991     -6.068076     -6.068076      5.582161
     2   1 1 0     -0.000000     -0.000000     -0.000000      0.000000
     2   1 0 1      0.000000     -0.000000     -0.000000      0.000001
     2   0 2 0     -6.553983     -6.068082     -6.068082      5.582181
     2   0 1 1     -0.000000     -0.000000     -0.000000      0.000000

 Output coordinates in angstroms (scale by  1.889725989 to convert to a.u.)

  No.       Tag          Charge          X              Y              Z
 ---- ---------------- ---------- -------------- -------------- --------------
    1 C                    6.0000    -0.00000053     0.00000000     0.00000523
    2 H                    1.0000     0.00000000     0.00000000     1.08276209
    3 H                    1.0000     1.02083792     0.00000000    -0.36092376
    4 H                    1.0000    -0.51041870     0.88407302    -0.36092428
    5 H                    1.0000    -0.51041870    -0.88407302    -0.36092428

 Total times  cpu:       11.1s     wall:       14.2s
