         Total DFT energy =     -113.360375130510

 Vector   25  Occ=0.000000D+00  E= 4.866527D-01

 Vector   26  Occ=0.000000D+00  E= 5.290734D-01

         Total DFT energy =     -113.359655452654

 Vector    1  Occ=2.000000D+00  E=-1.906712D+01

 Vector    2  Occ=2.000000D+00  E=-1.017491D+01

 Vector    3  Occ=2.000000D+00  E=-1.163047D+00

 Vector    4  Occ=2.000000D+00  E=-5.955219D-01

 Vector    5  Occ=2.000000D+00  E=-5.183369D-01

 Vector    6  Occ=2.000000D+00  E=-5.183369D-01

 Vector    7  Occ=2.000000D+00  E=-3.998697D-01

 Vector    8  Occ=0.000000D+00  E=-1.295975D-01

 Vector    9  Occ=0.000000D+00  E=-1.295975D-01

 Vector   10  Occ=0.000000D+00  E= 1.816362D-02

 Vector   11  Occ=0.000000D+00  E= 4.972721D-02

 Vector   12  Occ=0.000000D+00  E= 6.140873D-02

 Vector   13  Occ=0.000000D+00  E= 6.140873D-02

 Vector   14  Occ=0.000000D+00  E= 1.435990D-01

 Vector   15  Occ=0.000000D+00  E= 1.919918D-01

 Vector   16  Occ=0.000000D+00  E= 1.919918D-01

 Vector   17  Occ=0.000000D+00  E= 2.120383D-01

 Vector   18  Occ=0.000000D+00  E= 2.519696D-01

 Vector   19  Occ=0.000000D+00  E= 2.519699D-01

 Vector   20  Occ=0.000000D+00  E= 3.151634D-01

 Vector   21  Occ=0.000000D+00  E= 3.810394D-01

 Vector   22  Occ=0.000000D+00  E= 4.030522D-01

 Vector   23  Occ=0.000000D+00  E= 4.030522D-01

 Vector   24  Occ=0.000000D+00  E= 4.876217D-01

 Vector   25  Occ=0.000000D+00  E= 4.876217D-01

 Vector   26  Occ=0.000000D+00  E= 5.274708D-01

         Total DFT energy =     -113.360244875629

 Vector    1  Occ=2.000000D+00  E=-1.906776D+01

 Vector    2  Occ=2.000000D+00  E=-1.017887D+01

 Vector    3  Occ=2.000000D+00  E=-1.157721D+00

 Vector    4  Occ=2.000000D+00  E=-5.955202D-01

 Vector    5  Occ=2.000000D+00  E=-5.149860D-01

 Vector    6  Occ=2.000000D+00  E=-5.149860D-01

 Vector    7  Occ=2.000000D+00  E=-4.007397D-01

 Vector    8  Occ=0.000000D+00  E=-1.333163D-01

 Vector    9  Occ=0.000000D+00  E=-1.333163D-01

 Vector   10  Occ=0.000000D+00  E= 1.799452D-02

 Vector   11  Occ=0.000000D+00  E= 4.929869D-02

 Vector   12  Occ=0.000000D+00  E= 6.139327D-02

 Vector   13  Occ=0.000000D+00  E= 6.139327D-02

 Vector   14  Occ=0.000000D+00  E= 1.436418D-01

 Vector   15  Occ=0.000000D+00  E= 1.919213D-01

 Vector   16  Occ=0.000000D+00  E= 1.919213D-01

 Vector   17  Occ=0.000000D+00  E= 2.114955D-01

 Vector   18  Occ=0.000000D+00  E= 2.516593D-01

 Vector   19  Occ=0.000000D+00  E= 2.516597D-01

 Vector   20  Occ=0.000000D+00  E= 3.127269D-01

 Vector   21  Occ=0.000000D+00  E= 3.789670D-01

 Vector   22  Occ=0.000000D+00  E= 4.015180D-01

 Vector   23  Occ=0.000000D+00  E= 4.015180D-01

 Vector   24  Occ=0.000000D+00  E= 4.870325D-01

 Vector   25  Occ=0.000000D+00  E= 4.870325D-01

 Vector   26  Occ=0.000000D+00  E= 5.284280D-01

         Total DFT energy =     -113.360237211280

                       DFT Final Molecular Orbital Analysis
                       ------------------------------------

 Vector    1  Occ=2.000000D+00  E=-1.906775D+01

 Vector    2  Occ=2.000000D+00  E=-1.017879D+01

 Vector    3  Occ=2.000000D+00  E=-1.157836D+00

 Vector    4  Occ=2.000000D+00  E=-5.955200D-01

 Vector    5  Occ=2.000000D+00  E=-5.150582D-01

 Vector    6  Occ=2.000000D+00  E=-5.150582D-01

 Vector    7  Occ=2.000000D+00  E=-4.007210D-01

 Vector    8  Occ=0.000000D+00  E=-1.332360D-01

 Vector    9  Occ=0.000000D+00  E=-1.332360D-01

 Vector   10  Occ=0.000000D+00  E= 1.799827D-02

 Vector   11  Occ=0.000000D+00  E= 4.930814D-02

 Vector   12  Occ=0.000000D+00  E= 6.139355D-02

 Vector   13  Occ=0.000000D+00  E= 6.139355D-02

 Vector   14  Occ=0.000000D+00  E= 1.436408D-01

 Vector   15  Occ=0.000000D+00  E= 1.919229D-01

 Vector   16  Occ=0.000000D+00  E= 1.919229D-01

 Vector   17  Occ=0.000000D+00  E= 2.115081D-01

 Vector   18  Occ=0.000000D+00  E= 2.516660D-01

 Vector   19  Occ=0.000000D+00  E= 2.516664D-01

 Vector   20  Occ=0.000000D+00  E= 3.127823D-01

 Vector   21  Occ=0.000000D+00  E= 3.790115D-01

 Vector   22  Occ=0.000000D+00  E= 4.015512D-01

 Vector   23  Occ=0.000000D+00  E= 4.015512D-01

 Vector   24  Occ=0.000000D+00  E= 4.870455D-01

 Vector   25  Occ=0.000000D+00  E= 4.870455D-01

 Vector   26  Occ=0.000000D+00  E= 5.284065D-01

     Multipole analysis of the density
     ---------------------------------

     L   x y z        total         alpha         beta         nuclear
     -   - - -        -----         -----         ----         -------
     0   0 0 0     -0.000000     -7.000000     -7.000000     14.000000

     1   1 0 0      0.000000      0.000000      0.000000      0.000000
     1   0 1 0      0.000000      0.000000      0.000000      0.000000
     1   0 0 1     -0.051257     -0.031893     -0.031893      0.012528

     2   2 0 0     -7.808010     -3.904005     -3.904005      0.000000
     2   1 1 0     -0.000000     -0.000000     -0.000000      0.000000
     2   1 0 1      0.000000      0.000000      0.000000      0.000000
     2   0 2 0     -7.808010     -3.904005     -3.904005      0.000000
     2   0 1 1      0.000000      0.000000      0.000000      0.000000

 Output coordinates in angstroms (scale by  1.889725989 to convert to a.u.)

  No.       Tag          Charge          X              Y              Z
 ---- ---------------- ---------- -------------- -------------- --------------
    1 O                    8.0000     0.00000000     0.00000000    -0.48080381
    2 C                    6.0000     0.00000000     0.00000000     0.64217666

 Total times  cpu:        5.7s     wall:        8.7s
