         Total DFT energy =     -188.678124535353

 Vector   17  Occ=0.000000D+00  E= 5.118781D-02

 Vector   18  Occ=0.000000D+00  E= 7.625846D-02

 Vector   19  Occ=0.000000D+00  E= 1.483859D-01

 Vector   20  Occ=0.000000D+00  E= 1.679907D-01

 Vector   21  Occ=0.000000D+00  E= 1.679907D-01

 Vector   22  Occ=0.000000D+00  E= 2.163428D-01

 Vector   23  Occ=0.000000D+00  E= 2.276977D-01

 Vector   24  Occ=0.000000D+00  E= 2.276979D-01

 Vector   25  Occ=0.000000D+00  E= 2.442569D-01

 Vector   26  Occ=0.000000D+00  E= 2.442569D-01

 Vector   27  Occ=0.000000D+00  E= 2.596400D-01

 Vector   28  Occ=0.000000D+00  E= 2.628435D-01

 Vector   29  Occ=0.000000D+00  E= 4.856661D-01

 Vector   30  Occ=0.000000D+00  E= 4.856661D-01

 Vector   31  Occ=0.000000D+00  E= 4.912732D-01

 Vector   32  Occ=0.000000D+00  E= 5.429989D-01

         Total DFT energy =     -188.677760854662

 Vector    1  Occ=2.000000D+00  E=-1.904892D+01

 Vector    2  Occ=2.000000D+00  E=-1.904892D+01

 Vector    3  Occ=2.000000D+00  E=-1.022909D+01

 Vector    4  Occ=2.000000D+00  E=-1.159392D+00

 Vector    5  Occ=2.000000D+00  E=-1.118448D+00

 Vector    6  Occ=2.000000D+00  E=-5.878388D-01

 Vector    7  Occ=2.000000D+00  E=-5.558180D-01

 Vector    8  Occ=2.000000D+00  E=-5.558180D-01

 Vector    9  Occ=2.000000D+00  E=-5.448593D-01

 Vector   10  Occ=2.000000D+00  E=-4.154076D-01

 Vector   11  Occ=2.000000D+00  E=-4.154076D-01

 Vector   12  Occ=0.000000D+00  E=-7.772967D-02

 Vector   13  Occ=0.000000D+00  E=-7.772967D-02

 Vector   14  Occ=0.000000D+00  E=-6.292127D-02

 Vector   15  Occ=0.000000D+00  E= 5.040138D-02

 Vector   16  Occ=0.000000D+00  E= 5.112654D-02

 Vector   17  Occ=0.000000D+00  E= 5.112654D-02

 Vector   18  Occ=0.000000D+00  E= 7.750653D-02

 Vector   19  Occ=0.000000D+00  E= 1.491982D-01

 Vector   20  Occ=0.000000D+00  E= 1.680361D-01

 Vector   21  Occ=0.000000D+00  E= 1.680361D-01

 Vector   22  Occ=0.000000D+00  E= 2.167777D-01

 Vector   23  Occ=0.000000D+00  E= 2.279497D-01

 Vector   24  Occ=0.000000D+00  E= 2.279499D-01

 Vector   25  Occ=0.000000D+00  E= 2.441680D-01

 Vector   26  Occ=0.000000D+00  E= 2.441680D-01

 Vector   27  Occ=0.000000D+00  E= 2.616059D-01

 Vector   28  Occ=0.000000D+00  E= 2.630054D-01

 Vector   29  Occ=0.000000D+00  E= 4.864486D-01

 Vector   30  Occ=0.000000D+00  E= 4.864486D-01

 Vector   31  Occ=0.000000D+00  E= 4.926711D-01

 Vector   32  Occ=0.000000D+00  E= 5.447218D-01

         Total DFT energy =     -188.677818838913

                       DFT Final Molecular Orbital Analysis
                       ------------------------------------

 Vector    1  Occ=2.000000D+00  E=-1.904908D+01

 Vector    2  Occ=2.000000D+00  E=-1.904908D+01

 Vector    3  Occ=2.000000D+00  E=-1.022940D+01

 Vector    4  Occ=2.000000D+00  E=-1.159123D+00

 Vector    5  Occ=2.000000D+00  E=-1.118179D+00

 Vector    6  Occ=2.000000D+00  E=-5.879640D-01

 Vector    7  Occ=2.000000D+00  E=-5.556018D-01

 Vector    8  Occ=2.000000D+00  E=-5.556018D-01

 Vector    9  Occ=2.000000D+00  E=-5.448536D-01

 Vector   10  Occ=2.000000D+00  E=-4.153982D-01

 Vector   11  Occ=2.000000D+00  E=-4.153982D-01

 Vector   12  Occ=0.000000D+00  E=-7.815166D-02

 Vector   13  Occ=0.000000D+00  E=-7.815166D-02

 Vector   14  Occ=0.000000D+00  E=-6.312754D-02

 Vector   15  Occ=0.000000D+00  E= 5.038948D-02

 Vector   16  Occ=0.000000D+00  E= 5.113436D-02

 Vector   17  Occ=0.000000D+00  E= 5.113436D-02

 Vector   18  Occ=0.000000D+00  E= 7.734642D-02

 Vector   19  Occ=0.000000D+00  E= 1.490924D-01

 Vector   20  Occ=0.000000D+00  E= 1.680302D-01

 Vector   21  Occ=0.000000D+00  E= 1.680302D-01

 Vector   22  Occ=0.000000D+00  E= 2.167212D-01

 Vector   23  Occ=0.000000D+00  E= 2.279170D-01

 Vector   24  Occ=0.000000D+00  E= 2.279173D-01

 Vector   25  Occ=0.000000D+00  E= 2.441797D-01

 Vector   26  Occ=0.000000D+00  E= 2.441797D-01

 Vector   27  Occ=0.000000D+00  E= 2.613479D-01

 Vector   28  Occ=0.000000D+00  E= 2.629846D-01

 Vector   29  Occ=0.000000D+00  E= 4.863474D-01

 Vector   30  Occ=0.000000D+00  E= 4.863474D-01

 Vector   31  Occ=0.000000D+00  E= 4.924880D-01

 Vector   32  Occ=0.000000D+00  E= 5.445007D-01

     Multipole analysis of the density
     ---------------------------------

     L   x y z        total         alpha         beta         nuclear
     -   - - -        -----         -----         ----         -------
     0   0 0 0     -0.000000    -11.000000    -11.000000     22.000000

     1   1 0 0     -0.000000     -0.000000     -0.000000      0.000000
     1   0 1 0      0.000000      0.000000      0.000000      0.000000
     1   0 0 1      0.000010      0.000007      0.000007     -0.000004

     2   2 0 0    -11.216172     -5.608086     -5.608086      0.000000
     2   1 1 0     -0.000000     -0.000000     -0.000000      0.000000
     2   1 0 1     -0.000000     -0.000000     -0.000000      0.000000
     2   0 2 0    -11.216172     -5.608086     -5.608086      0.000000
     2   0 1 1     -0.000000     -0.000000     -0.000000      0.000000

 Output coordinates in angstroms (scale by  1.889725989 to convert to a.u.)

  No.       Tag          Charge          X              Y              Z
 ---- ---------------- ---------- -------------- -------------- --------------
    1 C                    6.0000     0.00000000     0.00000000     0.00000106
    2 O                    8.0000     0.00000000     0.00000000     1.15517403
    3 O                    8.0000     0.00000000     0.00000000    -1.15517509

 Total times  cpu:        9.2s     wall:       11.6s
