         Total DFT energy =     -199.607864987202

 Vector    1  Occ=2.000000D+00  E=-2.460431D+01

 Vector    2  Occ=2.000000D+00  E=-2.460431D+01

 Vector    3  Occ=2.000000D+00  E=-1.355116D+00

 Vector    4  Occ=2.000000D+00  E=-1.105662D+00

 Vector    5  Occ=2.000000D+00  E=-6.547429D-01

 Vector    6  Occ=2.000000D+00  E=-5.672890D-01

 Vector    7  Occ=2.000000D+00  E=-5.672890D-01

 Vector    8  Occ=2.000000D+00  E=-4.264046D-01

 Vector    9  Occ=2.000000D+00  E=-4.264046D-01

 Vector   10  Occ=0.000000D+00  E=-2.732398D-01

 Vector   11  Occ=0.000000D+00  E= 8.335695D-02

 Vector   12  Occ=0.000000D+00  E= 1.471050D-01

 Vector   13  Occ=0.000000D+00  E= 1.700609D-01

 Vector   14  Occ=0.000000D+00  E= 1.700609D-01

 Vector   15  Occ=0.000000D+00  E= 2.369132D-01

 Vector   16  Occ=0.000000D+00  E= 2.539157D-01

 Vector   17  Occ=0.000000D+00  E= 2.539157D-01

 Vector   18  Occ=0.000000D+00  E= 3.909542D-01

 Vector   19  Occ=0.000000D+00  E= 7.645640D-01

         Total DFT energy =     -199.604622753218

 Vector    1  Occ=2.000000D+00  E=-2.460042D+01

 Vector    2  Occ=2.000000D+00  E=-2.460042D+01

 Vector    3  Occ=2.000000D+00  E=-1.384151D+00

 Vector    4  Occ=2.000000D+00  E=-1.090903D+00

 Vector    5  Occ=2.000000D+00  E=-6.621489D-01

 Vector    6  Occ=2.000000D+00  E=-5.796010D-01

 Vector    7  Occ=2.000000D+00  E=-5.796010D-01

 Vector    8  Occ=2.000000D+00  E=-4.164709D-01

 Vector    9  Occ=2.000000D+00  E=-4.164709D-01

 Vector   10  Occ=0.000000D+00  E=-2.329660D-01

 Vector   11  Occ=0.000000D+00  E= 8.381423D-02

 Vector   12  Occ=0.000000D+00  E= 1.493174D-01

 Vector   13  Occ=0.000000D+00  E= 1.698874D-01

 Vector   14  Occ=0.000000D+00  E= 1.698874D-01

 Vector   15  Occ=0.000000D+00  E= 2.363707D-01

 Vector   16  Occ=0.000000D+00  E= 2.554102D-01

 Vector   17  Occ=0.000000D+00  E= 2.554102D-01

 Vector   18  Occ=0.000000D+00  E= 3.942989D-01

 Vector   19  Occ=0.000000D+00  E= 7.560274D-01

         Total DFT energy =     -199.604150093331

 Vector    1  Occ=2.000000D+00  E=-2.460010D+01

 Vector    2  Occ=2.000000D+00  E=-2.460010D+01

 Vector    3  Occ=2.000000D+00  E=-1.386605D+00

 Vector    4  Occ=2.000000D+00  E=-1.089695D+00

 Vector    5  Occ=2.000000D+00  E=-6.627172D-01

 Vector    6  Occ=2.000000D+00  E=-5.806334D-01

 Vector    7  Occ=2.000000D+00  E=-5.806334D-01

 Vector    8  Occ=2.000000D+00  E=-4.156440D-01

 Vector    9  Occ=2.000000D+00  E=-4.156440D-01

 Vector   10  Occ=0.000000D+00  E=-2.295719D-01

 Vector   11  Occ=0.000000D+00  E= 8.385213D-02

 Vector   12  Occ=0.000000D+00  E= 1.495010D-01

 Vector   13  Occ=0.000000D+00  E= 1.698594D-01

 Vector   14  Occ=0.000000D+00  E= 1.698594D-01

 Vector   15  Occ=0.000000D+00  E= 2.363279D-01

 Vector   16  Occ=0.000000D+00  E= 2.555270D-01

 Vector   17  Occ=0.000000D+00  E= 2.555270D-01

 Vector   18  Occ=0.000000D+00  E= 3.945561D-01

 Vector   19  Occ=0.000000D+00  E= 7.553846D-01

         Total DFT energy =     -199.604227021226

                       DFT Final Molecular Orbital Analysis
                       ------------------------------------

 Vector    1  Occ=2.000000D+00  E=-2.460015D+01

 Vector    2  Occ=2.000000D+00  E=-2.460015D+01

 Vector    3  Occ=2.000000D+00  E=-1.386216D+00

 Vector    4  Occ=2.000000D+00  E=-1.089886D+00

 Vector    5  Occ=2.000000D+00  E=-6.626276D-01

 Vector    6  Occ=2.000000D+00  E=-5.804697D-01

 Vector    7  Occ=2.000000D+00  E=-5.804697D-01

 Vector    8  Occ=2.000000D+00  E=-4.157752D-01

 Vector    9  Occ=2.000000D+00  E=-4.157752D-01

 Vector   10  Occ=0.000000D+00  E=-2.301104D-01

 Vector   11  Occ=0.000000D+00  E= 8.384612D-02

 Vector   12  Occ=0.000000D+00  E= 1.494719D-01

 Vector   13  Occ=0.000000D+00  E= 1.698639D-01

 Vector   14  Occ=0.000000D+00  E= 1.698639D-01

 Vector   15  Occ=0.000000D+00  E= 2.363346D-01

 Vector   16  Occ=0.000000D+00  E= 2.555085D-01

 Vector   17  Occ=0.000000D+00  E= 2.555085D-01

 Vector   18  Occ=0.000000D+00  E= 3.945155D-01

 Vector   19  Occ=0.000000D+00  E= 7.554858D-01

     Multipole analysis of the density
     ---------------------------------

     L   x y z        total         alpha         beta         nuclear
     -   - - -        -----         -----         ----         -------
     0   0 0 0     -0.000000     -9.000000     -9.000000     18.000000

     1   1 0 0      0.000000      0.000000      0.000000      0.000000
     1   0 1 0     -0.000000     -0.000000     -0.000000      0.000000
     1   0 0 1     -0.000001     -0.000000     -0.000000      0.000000

     2   2 0 0     -7.293135     -3.646568     -3.646568      0.000000
     2   1 1 0     -0.000000     -0.000000     -0.000000      0.000000
     2   1 0 1     -0.000000     -0.000000     -0.000000      0.000000
     2   0 2 0     -7.293135     -3.646568     -3.646568      0.000000
     2   0 1 1     -0.000000     -0.000000     -0.000000      0.000000

 Output coordinates in angstroms (scale by  1.889725989 to convert to a.u.)

  No.       Tag          Charge          X              Y              Z
 ---- ---------------- ---------- -------------- -------------- --------------
    1 F                    9.0000     0.00000000     0.00000000    -0.66834761
    2 F                    9.0000     0.00000000     0.00000000     0.66834761

 Total times  cpu:        4.5s     wall:        7.3s
