         Total DFT energy =       -1.169379202340

 Vector    1  Occ=2.000000D+00  E=-4.302225D-01

 Vector    2  Occ=0.000000D+00  E= 1.940870D-04

 Vector    3  Occ=0.000000D+00  E= 3.185623D-02

 Vector    4  Occ=0.000000D+00  E= 1.129444D-01

 Vector    5  Occ=0.000000D+00  E= 1.599956D-01

 Vector    6  Occ=0.000000D+00  E= 1.599956D-01

 Vector    7  Occ=0.000000D+00  E= 3.152959D-01

 Vector    8  Occ=0.000000D+00  E= 4.093220D-01

 Vector    9  Occ=0.000000D+00  E= 4.329497D-01

 Vector   10  Occ=0.000000D+00  E= 4.329497D-01

 Vector   11  Occ=0.000000D+00  E= 4.390724D-01

 Vector   12  Occ=0.000000D+00  E= 9.326182D-01

         Total DFT energy =       -1.169089135485

 Vector    1  Occ=2.000000D+00  E=-4.249640D-01

 Vector    2  Occ=0.000000D+00  E=-4.984429D-03

 Vector    3  Occ=0.000000D+00  E= 3.183937D-02

 Vector    4  Occ=0.000000D+00  E= 1.093606D-01

 Vector    5  Occ=0.000000D+00  E= 1.565578D-01

 Vector    6  Occ=0.000000D+00  E= 1.565578D-01

 Vector    7  Occ=0.000000D+00  E= 3.160226D-01

 Vector    8  Occ=0.000000D+00  E= 4.063411D-01

 Vector    9  Occ=0.000000D+00  E= 4.279190D-01

 Vector   10  Occ=0.000000D+00  E= 4.279190D-01

 Vector   11  Occ=0.000000D+00  E= 4.340957D-01

 Vector   12  Occ=0.000000D+00  E= 9.167761D-01

         Total DFT energy =       -1.168759416477

 Vector    1  Occ=2.000000D+00  E=-4.230914D-01

 Vector    2  Occ=0.000000D+00  E=-6.604436D-03

 Vector    3  Occ=0.000000D+00  E= 3.183686D-02

 Vector    4  Occ=0.000000D+00  E= 1.084415D-01

 Vector    5  Occ=0.000000D+00  E= 1.556096D-01

 Vector    6  Occ=0.000000D+00  E= 1.556096D-01

 Vector    7  Occ=0.000000D+00  E= 3.162749D-01

 Vector    8  Occ=0.000000D+00  E= 4.059172D-01

 Vector    9  Occ=0.000000D+00  E= 4.260833D-01

 Vector   10  Occ=0.000000D+00  E= 4.260833D-01

 Vector   11  Occ=0.000000D+00  E= 4.322887D-01

 Vector   12  Occ=0.000000D+00  E= 9.128684D-01

         Total DFT energy =       -1.168712085490

                       DFT Final Molecular Orbital Analysis
                       ------------------------------------

 Vector    1  Occ=2.000000D+00  E=-4.228662D-01

 Vector    2  Occ=0.000000D+00  E=-6.765737D-03

 Vector    3  Occ=0.000000D+00  E= 3.183668D-02

 Vector    4  Occ=0.000000D+00  E= 1.083673D-01

 Vector    5  Occ=0.000000D+00  E= 1.555243D-01

 Vector    6  Occ=0.000000D+00  E= 1.555243D-01

 Vector    7  Occ=0.000000D+00  E= 3.163051D-01

 Vector    8  Occ=0.000000D+00  E= 4.059299D-01

 Vector    9  Occ=0.000000D+00  E= 4.258612D-01

 Vector   10  Occ=0.000000D+00  E= 4.258612D-01

 Vector   11  Occ=0.000000D+00  E= 4.320704D-01

 Vector   12  Occ=0.000000D+00  E= 9.125778D-01

     Multipole analysis of the density
     ---------------------------------

     L   x y z        total         alpha         beta         nuclear
     -   - - -        -----         -----         ----         -------
     0   0 0 0     -0.000000     -1.000000     -1.000000      2.000000

     1   1 0 0      0.000000      0.000000      0.000000      0.000000
     1   0 1 0      0.000000      0.000000      0.000000      0.000000
     1   0 0 1      0.000000      0.000000      0.000000      0.000000

     2   2 0 0     -1.682164     -0.841082     -0.841082      0.000000
     2   1 1 0      0.000000      0.000000      0.000000      0.000000
     2   1 0 1      0.000000      0.000000      0.000000      0.000000
     2   0 2 0     -1.682164     -0.841082     -0.841082      0.000000
     2   0 1 1      0.000000      0.000000      0.000000      0.000000

 Output coordinates in angstroms (scale by  1.889725989 to convert to a.u.)

  No.       Tag          Charge          X              Y              Z
 ---- ---------------- ---------- -------------- -------------- --------------
    1 H                    1.0000     0.00000000     0.00000000     0.38798916
    2 H                    1.0000     0.00000000     0.00000000    -0.38798916

 Total times  cpu:        1.6s     wall:        4.5s
