         Total DFT energy =     -114.546800962221
         Total DFT energy =     -114.546057547302
         Total DFT energy =     -114.546595343616

 Vector   17  Occ=0.000000D+00  E= 1.368830D-01

 Vector   18  Occ=0.000000D+00  E= 1.384384D-01

 Vector   19  Occ=0.000000D+00  E= 1.969306D-01

 Vector   20  Occ=0.000000D+00  E= 2.048018D-01

 Vector   21  Occ=0.000000D+00  E= 2.057161D-01

 Vector   22  Occ=0.000000D+00  E= 2.702947D-01

 Vector   23  Occ=0.000000D+00  E= 2.797953D-01

 Vector   24  Occ=0.000000D+00  E= 3.121381D-01

 Vector   25  Occ=0.000000D+00  E= 3.181087D-01

 Vector   26  Occ=0.000000D+00  E= 3.392237D-01

 Vector   27  Occ=0.000000D+00  E= 3.947488D-01

 Vector   28  Occ=0.000000D+00  E= 4.500143D-01

 Vector   29  Occ=0.000000D+00  E= 4.626847D-01

 Vector   30  Occ=0.000000D+00  E= 4.653527D-01

 Vector   31  Occ=0.000000D+00  E= 4.667086D-01

 Vector   32  Occ=0.000000D+00  E= 5.265112D-01

         Total DFT energy =     -114.546598190276

 Vector    1  Occ=2.000000D+00  E=-1.898627D+01

 Vector    2  Occ=2.000000D+00  E=-1.015312D+01

 Vector    3  Occ=2.000000D+00  E=-1.065712D+00

 Vector    4  Occ=2.000000D+00  E=-6.471406D-01

 Vector    5  Occ=2.000000D+00  E=-5.199966D-01

 Vector    6  Occ=2.000000D+00  E=-4.768509D-01

 Vector    7  Occ=2.000000D+00  E=-4.552163D-01

 Vector    8  Occ=2.000000D+00  E=-2.960614D-01

 Vector    9  Occ=0.000000D+00  E=-1.631591D-01

 Vector   10  Occ=0.000000D+00  E=-2.102015D-02

 Vector   11  Occ=0.000000D+00  E= 1.815791D-02

 Vector   12  Occ=0.000000D+00  E= 1.831874D-02

 Vector   13  Occ=0.000000D+00  E= 5.604489D-02

 Vector   14  Occ=0.000000D+00  E= 7.166987D-02

 Vector   15  Occ=0.000000D+00  E= 1.002899D-01

 Vector   16  Occ=0.000000D+00  E= 1.015907D-01

 Vector   17  Occ=0.000000D+00  E= 1.368731D-01

 Vector   18  Occ=0.000000D+00  E= 1.385158D-01

 Vector   19  Occ=0.000000D+00  E= 1.968110D-01

 Vector   20  Occ=0.000000D+00  E= 2.048071D-01

 Vector   21  Occ=0.000000D+00  E= 2.057043D-01

 Vector   22  Occ=0.000000D+00  E= 2.703423D-01

 Vector   23  Occ=0.000000D+00  E= 2.796373D-01

 Vector   24  Occ=0.000000D+00  E= 3.121614D-01

 Vector   25  Occ=0.000000D+00  E= 3.181983D-01

 Vector   26  Occ=0.000000D+00  E= 3.392957D-01

 Vector   27  Occ=0.000000D+00  E= 3.946740D-01

 Vector   28  Occ=0.000000D+00  E= 4.496617D-01

 Vector   29  Occ=0.000000D+00  E= 4.626308D-01

 Vector   30  Occ=0.000000D+00  E= 4.651622D-01

 Vector   31  Occ=0.000000D+00  E= 4.667911D-01

 Vector   32  Occ=0.000000D+00  E= 5.263365D-01

         Total DFT energy =     -114.546546599280

                       DFT Final Molecular Orbital Analysis
                       ------------------------------------

 Vector    1  Occ=2.000000D+00  E=-1.898585D+01

 Vector    2  Occ=2.000000D+00  E=-1.015338D+01

 Vector    3  Occ=2.000000D+00  E=-1.065668D+00

 Vector    4  Occ=2.000000D+00  E=-6.457805D-01

 Vector    5  Occ=2.000000D+00  E=-5.207373D-01

 Vector    6  Occ=2.000000D+00  E=-4.761345D-01

 Vector    7  Occ=2.000000D+00  E=-4.551203D-01

 Vector    8  Occ=2.000000D+00  E=-2.958651D-01

 Vector    9  Occ=0.000000D+00  E=-1.628693D-01

 Vector   10  Occ=0.000000D+00  E=-2.131303D-02

 Vector   11  Occ=0.000000D+00  E= 1.805600D-02

 Vector   12  Occ=0.000000D+00  E= 1.838401D-02

 Vector   13  Occ=0.000000D+00  E= 5.603680D-02

 Vector   14  Occ=0.000000D+00  E= 6.978918D-02

 Vector   15  Occ=0.000000D+00  E= 1.003836D-01

 Vector   16  Occ=0.000000D+00  E= 1.016709D-01

 Vector   17  Occ=0.000000D+00  E= 1.369351D-01

 Vector   18  Occ=0.000000D+00  E= 1.390334D-01

 Vector   19  Occ=0.000000D+00  E= 1.960858D-01

 Vector   20  Occ=0.000000D+00  E= 2.048480D-01

 Vector   21  Occ=0.000000D+00  E= 2.056881D-01

 Vector   22  Occ=0.000000D+00  E= 2.706729D-01

 Vector   23  Occ=0.000000D+00  E= 2.786454D-01

 Vector   24  Occ=0.000000D+00  E= 3.124342D-01

 Vector   25  Occ=0.000000D+00  E= 3.188489D-01

 Vector   26  Occ=0.000000D+00  E= 3.398632D-01

 Vector   27  Occ=0.000000D+00  E= 3.943050D-01

 Vector   28  Occ=0.000000D+00  E= 4.475241D-01

 Vector   29  Occ=0.000000D+00  E= 4.623267D-01

 Vector   30  Occ=0.000000D+00  E= 4.639889D-01

 Vector   31  Occ=0.000000D+00  E= 4.674295D-01

 Vector   32  Occ=0.000000D+00  E= 5.252607D-01

     Multipole analysis of the density
     ---------------------------------

     L   x y z        total         alpha         beta         nuclear
     -   - - -        -----         -----         ----         -------
     0   0 0 0     -0.000000     -8.000000     -8.000000     16.000000

     1   1 0 0      0.000000      0.000000      0.000000      0.000000
     1   0 1 0      0.000000      0.000000      0.000000      0.000000
     1   0 0 1     -0.906794     -0.385387     -0.385387     -0.136020

     2   2 0 0     -8.960752     -4.480376     -4.480376      0.000000
     2   1 1 0     -0.000000     -0.000000     -0.000000      0.000000
     2   1 0 1      0.000000      0.000000      0.000000      0.000000
     2   0 2 0     -8.796528     -7.596881     -7.596881      6.397234
     2   0 1 1     -0.000000     -0.000000     -0.000000      0.000000

 Output coordinates in angstroms (scale by  1.889725989 to convert to a.u.)

  No.       Tag          Charge          X              Y              Z
 ---- ---------------- ---------- -------------- -------------- --------------
    1 O                    8.0000     0.00000000     0.00000000     0.66339865
    2 C                    6.0000     0.00000000     0.00000000    -0.52838985
    3 H                    1.0000     0.00000000     0.94641645    -1.10441440
    4 H                    1.0000     0.00000000    -0.94641645    -1.10441440

 Total times  cpu:       18.3s     wall:       22.6s
