         Total DFT energy =      -76.455959690806
         Total DFT energy =      -76.456057085192

 Vector   16  Occ=0.000000D+00  E= 3.394875D-01

 Vector   17  Occ=0.000000D+00  E= 3.856266D-01

 Vector   18  Occ=0.000000D+00  E= 4.437440D-01

 Vector   19  Occ=0.000000D+00  E= 5.241055D-01

         Total DFT energy =      -76.455973227232

 Vector    1  Occ=2.000000D+00  E=-1.896931D+01

 Vector    2  Occ=2.000000D+00  E=-1.007870D+00

 Vector    3  Occ=2.000000D+00  E=-5.441121D-01

 Vector    4  Occ=2.000000D+00  E=-4.220609D-01

 Vector    5  Occ=2.000000D+00  E=-3.438984D-01

 Vector    6  Occ=0.000000D+00  E=-4.640907D-02

 Vector    7  Occ=0.000000D+00  E= 1.937255D-02

 Vector    8  Occ=0.000000D+00  E= 1.044878D-01

 Vector    9  Occ=0.000000D+00  E= 1.085594D-01

 Vector   10  Occ=0.000000D+00  E= 1.365948D-01

 Vector   11  Occ=0.000000D+00  E= 1.398810D-01

 Vector   12  Occ=0.000000D+00  E= 1.846478D-01

 Vector   13  Occ=0.000000D+00  E= 2.038677D-01

 Vector   14  Occ=0.000000D+00  E= 2.716691D-01

 Vector   15  Occ=0.000000D+00  E= 3.042126D-01

 Vector   16  Occ=0.000000D+00  E= 3.355284D-01

 Vector   17  Occ=0.000000D+00  E= 3.831971D-01

 Vector   18  Occ=0.000000D+00  E= 4.453451D-01

 Vector   19  Occ=0.000000D+00  E= 5.247780D-01

         Total DFT energy =      -76.455760095190

 Vector    1  Occ=2.000000D+00  E=-1.896976D+01

 Vector    2  Occ=2.000000D+00  E=-1.008882D+00

 Vector    3  Occ=2.000000D+00  E=-5.417345D-01

 Vector    4  Occ=2.000000D+00  E=-4.245561D-01

 Vector    5  Occ=2.000000D+00  E=-3.441837D-01

 Vector    6  Occ=0.000000D+00  E=-4.670763D-02

 Vector    7  Occ=0.000000D+00  E= 1.942127D-02

 Vector    8  Occ=0.000000D+00  E= 1.045288D-01

 Vector    9  Occ=0.000000D+00  E= 1.077931D-01

 Vector   10  Occ=0.000000D+00  E= 1.365865D-01

 Vector   11  Occ=0.000000D+00  E= 1.404247D-01

 Vector   12  Occ=0.000000D+00  E= 1.856348D-01

 Vector   13  Occ=0.000000D+00  E= 2.042629D-01

 Vector   14  Occ=0.000000D+00  E= 2.691161D-01

 Vector   15  Occ=0.000000D+00  E= 3.054353D-01

 Vector   16  Occ=0.000000D+00  E= 3.328776D-01

 Vector   17  Occ=0.000000D+00  E= 3.815061D-01

 Vector   18  Occ=0.000000D+00  E= 4.474916D-01

 Vector   19  Occ=0.000000D+00  E= 5.261723D-01

         Total DFT energy =      -76.455585022153

 Vector    1  Occ=2.000000D+00  E=-1.896964D+01

 Vector    2  Occ=2.000000D+00  E=-1.010327D+00

 Vector    3  Occ=2.000000D+00  E=-5.413805D-01

 Vector    4  Occ=2.000000D+00  E=-4.259114D-01

 Vector    5  Occ=2.000000D+00  E=-3.445163D-01

 Vector    6  Occ=0.000000D+00  E=-4.639566D-02

 Vector    7  Occ=0.000000D+00  E= 1.985275D-02

 Vector    8  Occ=0.000000D+00  E= 1.050240D-01

 Vector    9  Occ=0.000000D+00  E= 1.080829D-01

 Vector   10  Occ=0.000000D+00  E= 1.366244D-01

 Vector   11  Occ=0.000000D+00  E= 1.407668D-01

 Vector   12  Occ=0.000000D+00  E= 1.861327D-01

 Vector   13  Occ=0.000000D+00  E= 2.045196D-01

 Vector   14  Occ=0.000000D+00  E= 2.683762D-01

 Vector   15  Occ=0.000000D+00  E= 3.064057D-01

 Vector   16  Occ=0.000000D+00  E= 3.319867D-01

 Vector   17  Occ=0.000000D+00  E= 3.808660D-01

 Vector   18  Occ=0.000000D+00  E= 4.491928D-01

 Vector   19  Occ=0.000000D+00  E= 5.274665D-01

         Total DFT energy =      -76.455560295695

                       DFT Final Molecular Orbital Analysis
                       ------------------------------------

 Vector    1  Occ=2.000000D+00  E=-1.896948D+01

 Vector    2  Occ=2.000000D+00  E=-1.010783D+00

 Vector    3  Occ=2.000000D+00  E=-5.417668D-01

 Vector    4  Occ=2.000000D+00  E=-4.259819D-01

 Vector    5  Occ=2.000000D+00  E=-3.446093D-01

 Vector    6  Occ=0.000000D+00  E=-4.617324D-02

 Vector    7  Occ=0.000000D+00  E= 2.004441D-02

 Vector    8  Occ=0.000000D+00  E= 1.052676D-01

 Vector    9  Occ=0.000000D+00  E= 1.083938D-01

 Vector   10  Occ=0.000000D+00  E= 1.366449D-01

 Vector   11  Occ=0.000000D+00  E= 1.408084D-01

 Vector   12  Occ=0.000000D+00  E= 1.861361D-01

 Vector   13  Occ=0.000000D+00  E= 2.045519D-01

 Vector   14  Occ=0.000000D+00  E= 2.685781D-01

 Vector   15  Occ=0.000000D+00  E= 3.065858D-01

 Vector   16  Occ=0.000000D+00  E= 3.321654D-01

 Vector   17  Occ=0.000000D+00  E= 3.809447D-01

 Vector   18  Occ=0.000000D+00  E= 4.495375D-01

 Vector   19  Occ=0.000000D+00  E= 5.277766D-01

     Multipole analysis of the density
     ---------------------------------

     L   x y z        total         alpha         beta         nuclear
     -   - - -        -----         -----         ----         -------
     0   0 0 0     -0.000000     -5.000000     -5.000000     10.000000

     1   1 0 0      0.614084      0.422784      0.422784     -0.231484
     1   0 1 0     -0.000000     -0.000000     -0.000000      0.000000
     1   0 0 1      0.475327      0.327257      0.327257     -0.179187

     2   2 0 0     -4.293329     -3.558582     -3.558582      2.823834
     2   1 1 0     -0.000000     -0.000000     -0.000000      0.000000
     2   1 0 1     -0.627778      0.090855      0.090855     -0.809488
     2   0 2 0     -5.860564     -2.930282     -2.930282      0.000000
     2   0 1 1     -0.000000     -0.000000     -0.000000      0.000000

 Output coordinates in angstroms (scale by  1.889725989 to convert to a.u.)

  No.       Tag          Charge          X              Y              Z
 ---- ---------------- ---------- -------------- -------------- --------------
    1 O                    8.0000    -0.11013536     0.00000000    -0.08524988
    2 H                    1.0000    -0.07125565     0.00000000     0.87566123
    3 H                    1.0000     0.82984248     0.00000000    -0.28848388

 Total times  cpu:        7.4s     wall:       12.1s
