         Total DFT energy =      -93.456637669148
         Total DFT energy =      -93.455726328653

 Vector    8  Occ=0.000000D+00  E=-9.572400D-02

 Vector    9  Occ=0.000000D+00  E=-9.572400D-02

 Vector   10  Occ=0.000000D+00  E=-2.654494D-02

 Vector   11  Occ=0.000000D+00  E= 2.258446D-03

 Vector   12  Occ=0.000000D+00  E= 5.775001D-02

 Vector   13  Occ=0.000000D+00  E= 5.775001D-02

 Vector   14  Occ=0.000000D+00  E= 8.072414D-02

 Vector   15  Occ=0.000000D+00  E= 1.014182D-01

 Vector   16  Occ=0.000000D+00  E= 1.622824D-01

 Vector   17  Occ=0.000000D+00  E= 1.622824D-01

 Vector   18  Occ=0.000000D+00  E= 1.751950D-01

 Vector   19  Occ=0.000000D+00  E= 1.965640D-01

 Vector   20  Occ=0.000000D+00  E= 2.398502D-01

 Vector   21  Occ=0.000000D+00  E= 2.398511D-01

 Vector   22  Occ=0.000000D+00  E= 3.083714D-01

 Vector   23  Occ=0.000000D+00  E= 3.219814D-01

 Vector   24  Occ=0.000000D+00  E= 3.219814D-01

 Vector   25  Occ=0.000000D+00  E= 4.203803D-01

 Vector   26  Occ=0.000000D+00  E= 4.521111D-01

 Vector   27  Occ=0.000000D+00  E= 4.521111D-01

 Vector   28  Occ=0.000000D+00  E= 4.748688D-01

 Vector   29  Occ=0.000000D+00  E= 5.616149D-01

         Total DFT energy =      -93.456545289828

 Vector    1  Occ=2.000000D+00  E=-1.420575D+01

 Vector    2  Occ=2.000000D+00  E=-1.011451D+01

 Vector    3  Occ=2.000000D+00  E=-9.228580D-01

 Vector    4  Occ=2.000000D+00  E=-6.214837D-01

 Vector    5  Occ=2.000000D+00  E=-4.077913D-01

 Vector    6  Occ=2.000000D+00  E=-4.077913D-01

 Vector    7  Occ=2.000000D+00  E=-4.070712D-01

 Vector    8  Occ=0.000000D+00  E=-1.001658D-01

 Vector    9  Occ=0.000000D+00  E=-1.001658D-01

 Vector   10  Occ=0.000000D+00  E=-2.523651D-02

 Vector   11  Occ=0.000000D+00  E= 1.687095D-03

 Vector   12  Occ=0.000000D+00  E= 5.769396D-02

 Vector   13  Occ=0.000000D+00  E= 5.769396D-02

 Vector   14  Occ=0.000000D+00  E= 8.135225D-02

 Vector   15  Occ=0.000000D+00  E= 1.014377D-01

 Vector   16  Occ=0.000000D+00  E= 1.617505D-01

 Vector   17  Occ=0.000000D+00  E= 1.617505D-01

 Vector   18  Occ=0.000000D+00  E= 1.738783D-01

 Vector   19  Occ=0.000000D+00  E= 1.963798D-01

 Vector   20  Occ=0.000000D+00  E= 2.391771D-01

 Vector   21  Occ=0.000000D+00  E= 2.391779D-01

 Vector   22  Occ=0.000000D+00  E= 3.078210D-01

 Vector   23  Occ=0.000000D+00  E= 3.217937D-01

 Vector   24  Occ=0.000000D+00  E= 3.217937D-01

 Vector   25  Occ=0.000000D+00  E= 4.209390D-01

 Vector   26  Occ=0.000000D+00  E= 4.530024D-01

 Vector   27  Occ=0.000000D+00  E= 4.530024D-01

 Vector   28  Occ=0.000000D+00  E= 4.738727D-01

 Vector   29  Occ=0.000000D+00  E= 5.561184D-01

         Total DFT energy =      -93.456537007318

                       DFT Final Molecular Orbital Analysis
                       ------------------------------------

 Vector    1  Occ=2.000000D+00  E=-1.420566D+01

 Vector    2  Occ=2.000000D+00  E=-1.011440D+01

 Vector    3  Occ=2.000000D+00  E=-9.229552D-01

 Vector    4  Occ=2.000000D+00  E=-6.215145D-01

 Vector    5  Occ=2.000000D+00  E=-4.078533D-01

 Vector    6  Occ=2.000000D+00  E=-4.078533D-01

 Vector    7  Occ=2.000000D+00  E=-4.070474D-01

 Vector    8  Occ=0.000000D+00  E=-1.000722D-01

 Vector    9  Occ=0.000000D+00  E=-1.000722D-01

 Vector   10  Occ=0.000000D+00  E=-2.516277D-02

 Vector   11  Occ=0.000000D+00  E= 1.701801D-03

 Vector   12  Occ=0.000000D+00  E= 5.769796D-02

 Vector   13  Occ=0.000000D+00  E= 5.769796D-02

 Vector   14  Occ=0.000000D+00  E= 8.137478D-02

 Vector   15  Occ=0.000000D+00  E= 1.014487D-01

 Vector   16  Occ=0.000000D+00  E= 1.617634D-01

 Vector   17  Occ=0.000000D+00  E= 1.617634D-01

 Vector   18  Occ=0.000000D+00  E= 1.739034D-01

 Vector   19  Occ=0.000000D+00  E= 1.964059D-01

 Vector   20  Occ=0.000000D+00  E= 2.391953D-01

 Vector   21  Occ=0.000000D+00  E= 2.391961D-01

 Vector   22  Occ=0.000000D+00  E= 3.078494D-01

 Vector   23  Occ=0.000000D+00  E= 3.218740D-01

 Vector   24  Occ=0.000000D+00  E= 3.218740D-01

 Vector   25  Occ=0.000000D+00  E= 4.209798D-01

 Vector   26  Occ=0.000000D+00  E= 4.529845D-01

 Vector   27  Occ=0.000000D+00  E= 4.529845D-01

 Vector   28  Occ=0.000000D+00  E= 4.739004D-01

 Vector   29  Occ=0.000000D+00  E= 5.563065D-01

     Multipole analysis of the density
     ---------------------------------

     L   x y z        total         alpha         beta         nuclear
     -   - - -        -----         -----         ----         -------
     0   0 0 0     -0.000000     -7.000000     -7.000000     14.000000

     1   1 0 0     -0.000000     -0.000000     -0.000000      0.000000
     1   0 1 0     -0.000000     -0.000000     -0.000000      0.000000
     1   0 0 1     -1.199408     -0.595471     -0.595471     -0.008466

     2   2 0 0     -9.012224     -4.506112     -4.506112      0.000000
     2   1 1 0     -0.000000     -0.000000     -0.000000      0.000000
     2   1 0 1     -0.000000     -0.000000     -0.000000      0.000000
     2   0 2 0     -9.012224     -4.506112     -4.506112      0.000000
     2   0 1 1     -0.000000     -0.000000     -0.000000      0.000000

 Output coordinates in angstroms (scale by  1.889725989 to convert to a.u.)

  No.       Tag          Charge          X              Y              Z
 ---- ---------------- ---------- -------------- -------------- --------------
    1 C                    6.0000     0.00000000     0.00000000    -0.49680660
    2 N                    7.0000     0.00000000     0.00000000     0.64892832
    3 H                    1.0000     0.00000000     0.00000000    -1.56613868

 Total times  cpu:       10.4s     wall:       13.2s
