         Total DFT energy =     -109.571734602270

 Vector    9  Occ=0.000000D+00  E=-1.379144D-01

 Vector   10  Occ=0.000000D+00  E= 4.205855D-02

 Vector   11  Occ=0.000000D+00  E= 7.402464D-02

 Vector   12  Occ=0.000000D+00  E= 8.327645D-02

 Vector   13  Occ=0.000000D+00  E= 8.327645D-02

 Vector   14  Occ=0.000000D+00  E= 1.243769D-01

 Vector   15  Occ=0.000000D+00  E= 1.634134D-01

 Vector   16  Occ=0.000000D+00  E= 1.634134D-01

 Vector   17  Occ=0.000000D+00  E= 2.389670D-01

 Vector   18  Occ=0.000000D+00  E= 3.236918D-01

 Vector   19  Occ=0.000000D+00  E= 3.236921D-01

 Vector   20  Occ=0.000000D+00  E= 4.016403D-01

 Vector   21  Occ=0.000000D+00  E= 4.284137D-01

 Vector   22  Occ=0.000000D+00  E= 5.422676D-01

         Total DFT energy =     -109.570831881029

 Vector    1  Occ=2.000000D+00  E=-1.427618D+01

 Vector    2  Occ=2.000000D+00  E=-1.427460D+01

 Vector    3  Occ=2.000000D+00  E=-1.125222D+00

 Vector    4  Occ=2.000000D+00  E=-5.708973D-01

 Vector    5  Occ=2.000000D+00  E=-5.110596D-01

 Vector    6  Occ=2.000000D+00  E=-5.110596D-01

 Vector    7  Occ=2.000000D+00  E=-4.526075D-01

 Vector    8  Occ=0.000000D+00  E=-1.301625D-01

 Vector    9  Occ=0.000000D+00  E=-1.301625D-01

 Vector   10  Occ=0.000000D+00  E= 4.286807D-02

 Vector   11  Occ=0.000000D+00  E= 7.442916D-02

 Vector   12  Occ=0.000000D+00  E= 8.294600D-02

 Vector   13  Occ=0.000000D+00  E= 8.294600D-02

 Vector   14  Occ=0.000000D+00  E= 1.247162D-01

 Vector   15  Occ=0.000000D+00  E= 1.643726D-01

 Vector   16  Occ=0.000000D+00  E= 1.643726D-01

 Vector   17  Occ=0.000000D+00  E= 2.395880D-01

 Vector   18  Occ=0.000000D+00  E= 3.246405D-01

 Vector   19  Occ=0.000000D+00  E= 3.246406D-01

 Vector   20  Occ=0.000000D+00  E= 4.113272D-01

 Vector   21  Occ=0.000000D+00  E= 4.291769D-01

 Vector   22  Occ=0.000000D+00  E= 5.434671D-01

         Total DFT energy =     -109.571632877809

 Vector    1  Occ=2.000000D+00  E=-1.427977D+01

 Vector    2  Occ=2.000000D+00  E=-1.427837D+01

 Vector    3  Occ=2.000000D+00  E=-1.118794D+00

 Vector    4  Occ=2.000000D+00  E=-5.740066D-01

 Vector    5  Occ=2.000000D+00  E=-5.075537D-01

 Vector    6  Occ=2.000000D+00  E=-5.075537D-01

 Vector    7  Occ=2.000000D+00  E=-4.520999D-01

 Vector    8  Occ=0.000000D+00  E=-1.355200D-01

 Vector    9  Occ=0.000000D+00  E=-1.355200D-01

 Vector   10  Occ=0.000000D+00  E= 4.231027D-02

 Vector   11  Occ=0.000000D+00  E= 7.415419D-02

 Vector   12  Occ=0.000000D+00  E= 8.317394D-02

 Vector   13  Occ=0.000000D+00  E= 8.317394D-02

 Vector   14  Occ=0.000000D+00  E= 1.244799D-01

 Vector   15  Occ=0.000000D+00  E= 1.637075D-01

 Vector   16  Occ=0.000000D+00  E= 1.637075D-01

 Vector   17  Occ=0.000000D+00  E= 2.391633D-01

 Vector   18  Occ=0.000000D+00  E= 3.239801D-01

 Vector   19  Occ=0.000000D+00  E= 3.239803D-01

 Vector   20  Occ=0.000000D+00  E= 4.048631D-01

 Vector   21  Occ=0.000000D+00  E= 4.286409D-01

 Vector   22  Occ=0.000000D+00  E= 5.426822D-01

         Total DFT energy =     -109.571625495395

                       DFT Final Molecular Orbital Analysis
                       ------------------------------------

 Vector    1  Occ=2.000000D+00  E=-1.427970D+01

 Vector    2  Occ=2.000000D+00  E=-1.427830D+01

 Vector    3  Occ=2.000000D+00  E=-1.118912D+00

 Vector    4  Occ=2.000000D+00  E=-5.739493D-01

 Vector    5  Occ=2.000000D+00  E=-5.076169D-01

 Vector    6  Occ=2.000000D+00  E=-5.076169D-01

 Vector    7  Occ=2.000000D+00  E=-4.521077D-01

 Vector    8  Occ=0.000000D+00  E=-1.354233D-01

 Vector    9  Occ=0.000000D+00  E=-1.354233D-01

 Vector   10  Occ=0.000000D+00  E= 4.232053D-02

 Vector   11  Occ=0.000000D+00  E= 7.415958D-02

 Vector   12  Occ=0.000000D+00  E= 8.316986D-02

 Vector   13  Occ=0.000000D+00  E= 8.316986D-02

 Vector   14  Occ=0.000000D+00  E= 1.244842D-01

 Vector   15  Occ=0.000000D+00  E= 1.637195D-01

 Vector   16  Occ=0.000000D+00  E= 1.637195D-01

 Vector   17  Occ=0.000000D+00  E= 2.391712D-01

 Vector   18  Occ=0.000000D+00  E= 3.239916D-01

 Vector   19  Occ=0.000000D+00  E= 3.239919D-01

 Vector   20  Occ=0.000000D+00  E= 4.049888D-01

 Vector   21  Occ=0.000000D+00  E= 4.286502D-01

 Vector   22  Occ=0.000000D+00  E= 5.426987D-01

     Multipole analysis of the density
     ---------------------------------

     L   x y z        total         alpha         beta         nuclear
     -   - - -        -----         -----         ----         -------
     0   0 0 0     -0.000000     -7.000000     -7.000000     14.000000

     1   1 0 0      0.000000      0.000000      0.000000      0.000000
     1   0 1 0      0.000000      0.000000      0.000000      0.000000
     1   0 0 1     -0.000000     -0.000000     -0.000000      0.000000

     2   2 0 0     -7.847675     -3.923837     -3.923837      0.000000
     2   1 1 0     -0.000000     -0.000000     -0.000000      0.000000
     2   1 0 1     -0.000000     -0.000000     -0.000000      0.000000
     2   0 2 0     -7.847675     -3.923837     -3.923837      0.000000
     2   0 1 1     -0.000000     -0.000000     -0.000000      0.000000

 Output coordinates in angstroms (scale by  1.889725989 to convert to a.u.)

  No.       Tag          Charge          X              Y              Z
 ---- ---------------- ---------- -------------- -------------- --------------
    1 N                    7.0000     0.00000000     0.00000000    -0.54577206
    2 N                    7.0000     0.00000000     0.00000000     0.54577206

 Total times  cpu:        4.5s     wall:        7.5s
