         Total DFT energy =     -184.759409651700
         Total DFT energy =     -184.756255440859

 Vector   11  Occ=2.000000D+00  E=-3.851288D-01

 Vector   12  Occ=0.000000D+00  E=-1.239775D-01

 Vector   13  Occ=0.000000D+00  E=-1.239775D-01

 Vector   14  Occ=0.000000D+00  E=-3.543458D-02

 Vector   15  Occ=0.000000D+00  E= 7.228735D-02

 Vector   16  Occ=0.000000D+00  E= 8.083378D-02

 Vector   17  Occ=0.000000D+00  E= 8.083378D-02

 Vector   18  Occ=0.000000D+00  E= 1.024756D-01

 Vector   19  Occ=0.000000D+00  E= 1.145507D-01

 Vector   20  Occ=0.000000D+00  E= 1.491395D-01

 Vector   21  Occ=0.000000D+00  E= 1.491395D-01

 Vector   22  Occ=0.000000D+00  E= 2.020218D-01

 Vector   23  Occ=0.000000D+00  E= 2.503101D-01

 Vector   24  Occ=0.000000D+00  E= 2.503101D-01

 Vector   25  Occ=0.000000D+00  E= 2.849472D-01

 Vector   26  Occ=0.000000D+00  E= 2.923697D-01

 Vector   27  Occ=0.000000D+00  E= 2.923706D-01

 Vector   28  Occ=0.000000D+00  E= 3.134527D-01

 Vector   29  Occ=0.000000D+00  E= 4.503755D-01

 Vector   30  Occ=0.000000D+00  E= 5.107720D-01

         Total DFT energy =     -184.758892086070

 Vector    1  Occ=2.000000D+00  E=-1.907445D+01

 Vector    2  Occ=2.000000D+00  E=-1.439208D+01

 Vector    3  Occ=2.000000D+00  E=-1.427354D+01

 Vector    4  Occ=2.000000D+00  E=-1.252433D+00

 Vector    5  Occ=2.000000D+00  E=-1.083081D+00

 Vector    6  Occ=2.000000D+00  E=-6.322025D-01

 Vector    7  Occ=2.000000D+00  E=-6.058685D-01

 Vector    8  Occ=2.000000D+00  E=-6.058685D-01

 Vector    9  Occ=2.000000D+00  E=-4.987792D-01

 Vector   10  Occ=2.000000D+00  E=-3.877217D-01

 Vector   11  Occ=2.000000D+00  E=-3.877217D-01

 Vector   12  Occ=0.000000D+00  E=-1.211848D-01

 Vector   13  Occ=0.000000D+00  E=-1.211848D-01

 Vector   14  Occ=0.000000D+00  E=-3.714801D-02

 Vector   15  Occ=0.000000D+00  E= 7.235399D-02

 Vector   16  Occ=0.000000D+00  E= 8.066990D-02

 Vector   17  Occ=0.000000D+00  E= 8.066990D-02

 Vector   18  Occ=0.000000D+00  E= 9.748483D-02

 Vector   19  Occ=0.000000D+00  E= 1.149493D-01

 Vector   20  Occ=0.000000D+00  E= 1.495826D-01

 Vector   21  Occ=0.000000D+00  E= 1.495826D-01

 Vector   22  Occ=0.000000D+00  E= 2.021168D-01

 Vector   23  Occ=0.000000D+00  E= 2.505956D-01

 Vector   24  Occ=0.000000D+00  E= 2.505956D-01

 Vector   25  Occ=0.000000D+00  E= 2.864935D-01

 Vector   26  Occ=0.000000D+00  E= 2.924568D-01

 Vector   27  Occ=0.000000D+00  E= 2.924577D-01

 Vector   28  Occ=0.000000D+00  E= 3.135079D-01

 Vector   29  Occ=0.000000D+00  E= 4.507859D-01

 Vector   30  Occ=0.000000D+00  E= 5.058305D-01

         Total DFT energy =     -184.758869035753

                       DFT Final Molecular Orbital Analysis
                       ------------------------------------

 Vector    1  Occ=2.000000D+00  E=-1.907460D+01

 Vector    2  Occ=2.000000D+00  E=-1.439214D+01

 Vector    3  Occ=2.000000D+00  E=-1.427353D+01

 Vector    4  Occ=2.000000D+00  E=-1.252912D+00

 Vector    5  Occ=2.000000D+00  E=-1.082663D+00

 Vector    6  Occ=2.000000D+00  E=-6.323299D-01

 Vector    7  Occ=2.000000D+00  E=-6.059427D-01

 Vector    8  Occ=2.000000D+00  E=-6.059427D-01

 Vector    9  Occ=2.000000D+00  E=-4.987315D-01

 Vector   10  Occ=2.000000D+00  E=-3.876543D-01

 Vector   11  Occ=2.000000D+00  E=-3.876543D-01

 Vector   12  Occ=0.000000D+00  E=-1.212786D-01

 Vector   13  Occ=0.000000D+00  E=-1.212786D-01

 Vector   14  Occ=0.000000D+00  E=-3.707047D-02

 Vector   15  Occ=0.000000D+00  E= 7.235765D-02

 Vector   16  Occ=0.000000D+00  E= 8.067824D-02

 Vector   17  Occ=0.000000D+00  E= 8.067824D-02

 Vector   18  Occ=0.000000D+00  E= 9.770179D-02

 Vector   19  Occ=0.000000D+00  E= 1.149402D-01

 Vector   20  Occ=0.000000D+00  E= 1.495673D-01

 Vector   21  Occ=0.000000D+00  E= 1.495673D-01

 Vector   22  Occ=0.000000D+00  E= 2.021088D-01

 Vector   23  Occ=0.000000D+00  E= 2.505883D-01

 Vector   24  Occ=0.000000D+00  E= 2.505883D-01

 Vector   25  Occ=0.000000D+00  E= 2.864626D-01

 Vector   26  Occ=0.000000D+00  E= 2.924532D-01

 Vector   27  Occ=0.000000D+00  E= 2.924541D-01

 Vector   28  Occ=0.000000D+00  E= 3.135032D-01

 Vector   29  Occ=0.000000D+00  E= 4.507631D-01

 Vector   30  Occ=0.000000D+00  E= 5.059836D-01

     Multipole analysis of the density
     ---------------------------------

     L   x y z        total         alpha         beta         nuclear
     -   - - -        -----         -----         ----         -------
     0   0 0 0     -0.000000    -11.000000    -11.000000     22.000000

     1   1 0 0      0.000000      0.000000      0.000000      0.000000
     1   0 1 0     -0.000000     -0.000000     -0.000000      0.000000
     1   0 0 1      0.087847      0.056444      0.056444     -0.025042

     2   2 0 0    -11.634077     -5.817039     -5.817039      0.000000
     2   1 1 0      0.000000      0.000000      0.000000      0.000000
     2   1 0 1      0.000000      0.000000      0.000000      0.000000
     2   0 2 0    -11.634077     -5.817039     -5.817039      0.000000
     2   0 1 1      0.000000      0.000000      0.000000      0.000000

 Output coordinates in angstroms (scale by  1.889725989 to convert to a.u.)

  No.       Tag          Charge          X              Y              Z
 ---- ---------------- ---------- -------------- -------------- --------------
    1 N                    7.0000     0.00000000     0.00000000    -1.19175523
    2 N                    7.0000     0.00000000     0.00000000    -0.06577857
    3 O                    8.0000     0.00000000     0.00000000     1.09868562

 Total times  cpu:       14.6s     wall:       17.9s
