         Total DFT energy =      -55.151699227120

 Vector    1  Occ=2.000000D+00  E=-1.427765D+01

 Vector    2  Occ=2.000000D+00  E=-8.190175D-01

 Vector    3  Occ=2.000000D+00  E=-4.170947D-01

 Vector    4  Occ=2.000000D+00  E=-2.941747D-01

 Vector    5  Occ=0.000000D+00  E=-3.464596D-01

 Vector    6  Occ=0.000000D+00  E=-2.784861D-02

 Vector    7  Occ=0.000000D+00  E= 8.909613D-02

 Vector    8  Occ=0.000000D+00  E= 9.648874D-02

 Vector    9  Occ=0.000000D+00  E= 9.846056D-02

 Vector   10  Occ=0.000000D+00  E= 9.928342D-02

 Vector   11  Occ=0.000000D+00  E= 1.408298D-01

 Vector   12  Occ=0.000000D+00  E= 2.803828D-01

 Vector   13  Occ=0.000000D+00  E= 2.844122D-01

 Vector   14  Occ=0.000000D+00  E= 3.683358D-01

 Vector   15  Occ=0.000000D+00  E= 4.246848D-01

 Vector   16  Occ=0.000000D+00  E= 4.330104D-01

 Vector   17  Occ=0.000000D+00  E= 5.431907D-01

         Total DFT energy =      -55.151757159915

 Vector    1  Occ=2.000000D+00  E=-1.427854D+01

 Vector    2  Occ=2.000000D+00  E=-8.167140D-01

 Vector    3  Occ=2.000000D+00  E=-4.165291D-01

 Vector    4  Occ=2.000000D+00  E=-2.939893D-01

 Vector    5  Occ=0.000000D+00  E=-3.461825D-01

 Vector    6  Occ=0.000000D+00  E=-2.923855D-02

 Vector    7  Occ=0.000000D+00  E= 8.756736D-02

 Vector    8  Occ=0.000000D+00  E= 9.638157D-02

 Vector    9  Occ=0.000000D+00  E= 9.726131D-02

 Vector   10  Occ=0.000000D+00  E= 9.915964D-02

 Vector   11  Occ=0.000000D+00  E= 1.409369D-01

 Vector   12  Occ=0.000000D+00  E= 2.789662D-01

 Vector   13  Occ=0.000000D+00  E= 2.829477D-01

 Vector   14  Occ=0.000000D+00  E= 3.674862D-01

 Vector   15  Occ=0.000000D+00  E= 4.246738D-01

 Vector   16  Occ=0.000000D+00  E= 4.330047D-01

 Vector   17  Occ=0.000000D+00  E= 5.423175D-01

         Total DFT energy =      -55.151750223748

                       DFT Final Molecular Orbital Analysis
                       ------------------------------------

 Vector    1  Occ=2.000000D+00  E=-1.427882D+01

 Vector    2  Occ=2.000000D+00  E=-8.159559D-01

 Vector    3  Occ=2.000000D+00  E=-4.163339D-01

 Vector    4  Occ=2.000000D+00  E=-2.939251D-01

 Vector    5  Occ=0.000000D+00  E=-3.460885D-01

 Vector    6  Occ=0.000000D+00  E=-2.971550D-02

 Vector    7  Occ=0.000000D+00  E= 8.701043D-02

 Vector    8  Occ=0.000000D+00  E= 9.634675D-02

 Vector    9  Occ=0.000000D+00  E= 9.692001D-02

 Vector   10  Occ=0.000000D+00  E= 9.912052D-02

 Vector   11  Occ=0.000000D+00  E= 1.409738D-01

 Vector   12  Occ=0.000000D+00  E= 2.784991D-01

 Vector   13  Occ=0.000000D+00  E= 2.824617D-01

 Vector   14  Occ=0.000000D+00  E= 3.672184D-01

 Vector   15  Occ=0.000000D+00  E= 4.246712D-01

 Vector   16  Occ=0.000000D+00  E= 4.330048D-01

 Vector   17  Occ=0.000000D+00  E= 5.420244D-01

     Multipole analysis of the density
     ---------------------------------

     L   x y z        total         alpha         beta         nuclear
     -   - - -        -----         -----         ----         -------
     0   0 0 0     -0.000000     -4.000000     -4.000000      8.000000

     1   1 0 0     -0.000000     -0.000000     -0.000000      0.000000
     1   0 1 0     -0.000000     -0.000000     -0.000000      0.000000
     1   0 0 1      0.602176      0.336893      0.336893     -0.071610

     2   2 0 0     -4.314037     -2.157018     -2.157018      0.000000
     2   1 1 0      0.863867      0.431933      0.431933      0.000000
     2   1 0 1      0.000000      0.000000      0.000000      0.000000
     2   0 2 0     -5.960727     -2.980364     -2.980364      0.000000
     2   0 1 1      0.000000      0.000000      0.000000      0.000000

 Output coordinates in angstroms (scale by  1.889725989 to convert to a.u.)

  No.       Tag          Charge          X              Y              Z
 ---- ---------------- ---------- -------------- -------------- --------------
    1 N                    7.0000     0.00000000     0.00000000    -0.13590698
    2 H                    1.0000     0.00000000     0.00000000     0.91345448

 Total times  cpu:        2.5s     wall:        4.9s
