 Output coordinates in angstroms (scale by  1.889725989 to convert to a.u.)

  No.       Tag          Charge          X              Y              Z
 ---- ---------------- ---------- -------------- -------------- --------------
    1 Co                  27.0000     0.00000000     0.00000000    -0.10288964
    2 H                    1.0000     0.00000000     0.00000000     2.77802036

         Total DFT energy =    -1383.292208180256

                    DFT Final Alpha Molecular Orbital Analysis
                    ------------------------------------------

 Vector    1  Occ=1.000000D+00  E=-2.766027D+02

 Vector   16  Occ=0.000000D+00  E=-8.089612D-02

 Vector   17  Occ=0.000000D+00  E= 1.783696D-02

 Vector   18  Occ=0.000000D+00  E= 1.810695D-02

 Vector   19  Occ=0.000000D+00  E= 3.794627D-02

 Vector   20  Occ=0.000000D+00  E= 7.031535D-02

 Vector   21  Occ=0.000000D+00  E= 1.946131D-01

 Vector   22  Occ=0.000000D+00  E= 2.036485D-01

 Vector   23  Occ=0.000000D+00  E= 2.053338D-01

 Vector   24  Occ=0.000000D+00  E= 2.096494D-01

 Vector   25  Occ=0.000000D+00  E= 2.193753D-01

 Vector   26  Occ=0.000000D+00  E= 2.632785D-01

 Vector   27  Occ=0.000000D+00  E= 3.610129D-01

 Vector   28  Occ=0.000000D+00  E= 4.905265D-01

 Vector   29  Occ=0.000000D+00  E= 4.920449D-01

 Vector   30  Occ=0.000000D+00  E= 5.300867D-01

 Vector   31  Occ=0.000000D+00  E= 6.127949D-01

 Vector   32  Occ=0.000000D+00  E= 6.135769D-01

 Vector   33  Occ=0.000000D+00  E= 7.933189D-01

 Vector   34  Occ=0.000000D+00  E= 9.543656D-01

 Vector   35  Occ=0.000000D+00  E= 9.672433D-01

 Vector   36  Occ=0.000000D+00  E= 9.673206D-01

 Vector   37  Occ=0.000000D+00  E= 9.953754D-01

 Vector   38  Occ=0.000000D+00  E= 9.957556D-01

 Vector   39  Occ=0.000000D+00  E= 9.999524D-01

 Vector   40  Occ=0.000000D+00  E= 1.584392D+00

 Vector   41  Occ=0.000000D+00  E= 2.399399D+00

 Vector   42  Occ=0.000000D+00  E= 2.399859D+00

 Vector   43  Occ=0.000000D+00  E= 2.412179D+00

 Vector   44  Occ=0.000000D+00  E= 2.438361D+00

 Vector   45  Occ=0.000000D+00  E= 2.665097D+00

 Vector   46  Occ=0.000000D+00  E= 2.693636D+00

 Vector   47  Occ=0.000000D+00  E= 2.694230D+00

 Vector   48  Occ=0.000000D+00  E= 2.696030D+00

 Vector   49  Occ=0.000000D+00  E= 2.724587D+00

 Vector   50  Occ=0.000000D+00  E= 2.725363D+00

 Vector   51  Occ=0.000000D+00  E= 2.725517D+00

 Vector   52  Occ=0.000000D+00  E= 3.262616D+00

 Vector   53  Occ=0.000000D+00  E= 3.262692D+00

 Vector   54  Occ=0.000000D+00  E= 3.268411D+00

 Vector   55  Occ=0.000000D+00  E= 3.268525D+00

 Vector   56  Occ=0.000000D+00  E= 3.274093D+00

 Vector   57  Occ=0.000000D+00  E= 3.398277D+00

 Vector   58  Occ=0.000000D+00  E= 3.399767D+00

 Vector   59  Occ=0.000000D+00  E= 3.420140D+00

 Vector   60  Occ=0.000000D+00  E= 3.447457D+00

 Vector   61  Occ=0.000000D+00  E= 3.459570D+00

 Vector   62  Occ=0.000000D+00  E= 3.748118D+00

 Vector   63  Occ=0.000000D+00  E= 3.748291D+00

 Vector   64  Occ=0.000000D+00  E= 3.889861D+00

 Vector   65  Occ=0.000000D+00  E= 4.584359D+00

 Vector   66  Occ=0.000000D+00  E= 8.390986D+00

 Vector   67  Occ=0.000000D+00  E= 9.259267D+00

 Vector   68  Occ=0.000000D+00  E= 9.262697D+00

 Vector   69  Occ=0.000000D+00  E= 9.263304D+00

 Vector   70  Occ=0.000000D+00  E= 9.263435D+00

 Vector   71  Occ=0.000000D+00  E= 9.267299D+00

 Vector   72  Occ=0.000000D+00  E= 9.272972D+00

 Vector   73  Occ=0.000000D+00  E= 9.286380D+00

 Vector   74  Occ=0.000000D+00  E= 9.291987D+00

 Vector   75  Occ=0.000000D+00  E= 1.001022D+01

 Vector   76  Occ=0.000000D+00  E= 1.001158D+01

 Vector   77  Occ=0.000000D+00  E= 1.001254D+01

 Vector   78  Occ=0.000000D+00  E= 1.002333D+01

 Vector   79  Occ=0.000000D+00  E= 1.002359D+01

 Vector   80  Occ=0.000000D+00  E= 1.002598D+01

 Vector   81  Occ=0.000000D+00  E= 1.002616D+01

 Vector   82  Occ=0.000000D+00  E= 1.002657D+01

 Vector   83  Occ=0.000000D+00  E= 1.003896D+01

 Vector   84  Occ=0.000000D+00  E= 1.045221D+01

 Vector   85  Occ=0.000000D+00  E= 1.048815D+01

 Vector   86  Occ=0.000000D+00  E= 1.048879D+01

 Vector   87  Occ=0.000000D+00  E= 1.048952D+01

 Vector   88  Occ=0.000000D+00  E= 1.051238D+01

 Vector   89  Occ=0.000000D+00  E= 1.051301D+01

 Vector   90  Occ=0.000000D+00  E= 1.051323D+01

 Vector   91  Occ=0.000000D+00  E= 2.275371D+01

 Vector   92  Occ=0.000000D+00  E= 2.275381D+01

 Vector   93  Occ=0.000000D+00  E= 2.275612D+01

 Vector   94  Occ=0.000000D+00  E= 6.072451D+01

 Vector   95  Occ=0.000000D+00  E= 1.774021D+02

     Multipole analysis of the density
     ---------------------------------

     L   x y z        total         alpha         beta         nuclear
     -   - - -        -----         -----         ----         -------
     0   0 0 0     -0.000000    -15.000000    -13.000000     28.000000

     1   1 0 0      0.000021      0.000015      0.000006      0.000000
     1   0 1 0     -0.000011     -0.000010     -0.000002      0.000000
     1   0 0 1     -0.823022      1.873983     -2.697004      0.000000

     2   2 0 0    -12.029023     -7.526674     -4.502349      0.000000
     2   1 1 0     -0.149924     -0.009255     -0.140669      0.000000
     2   1 0 1     -0.000001     -0.000001      0.000001      0.000000
     2   0 2 0    -12.028947     -7.526671     -4.502276      0.000000
     2   0 1 1     -0.000000      0.000000     -0.000001      0.000000

 Total times  cpu:      573.3s     wall:      584.4s
