 Output coordinates in angstroms (scale by  1.889725989 to convert to a.u.)

  No.       Tag          Charge          X              Y              Z
 ---- ---------------- ---------- -------------- -------------- --------------
    1 Cr                  24.0000     0.00000000     0.00000000    -0.92066455
    2 F                    9.0000     0.00000000     0.00000000     2.45510545

         Total DFT energy =    -1144.301771735561

                    DFT Final Alpha Molecular Orbital Analysis
                    ------------------------------------------

 Vector    1  Occ=1.000000D+00  E=-2.149255D+02

 Vector   37  Occ=0.000000D+00  E= 5.036664D-01

 Vector   38  Occ=0.000000D+00  E= 5.036664D-01

 Vector   39  Occ=0.000000D+00  E= 5.985050D-01

 Vector   40  Occ=0.000000D+00  E= 6.117639D-01

 Vector   41  Occ=0.000000D+00  E= 6.117639D-01

 Vector   42  Occ=0.000000D+00  E= 7.126338D-01

 Vector   43  Occ=0.000000D+00  E= 8.579483D-01

 Vector   44  Occ=0.000000D+00  E= 1.087105D+00

 Vector   45  Occ=0.000000D+00  E= 1.325336D+00

 Vector   46  Occ=0.000000D+00  E= 1.325336D+00

 Vector   47  Occ=0.000000D+00  E= 1.337272D+00

 Vector   48  Occ=0.000000D+00  E= 1.528098D+00

 Vector   49  Occ=0.000000D+00  E= 1.528098D+00

 Vector   50  Occ=0.000000D+00  E= 1.529146D+00

 Vector   51  Occ=0.000000D+00  E= 1.529155D+00

 Vector   52  Occ=0.000000D+00  E= 1.530998D+00

 Vector   53  Occ=0.000000D+00  E= 1.530998D+00

 Vector   54  Occ=0.000000D+00  E= 1.535805D+00

 Vector   55  Occ=0.000000D+00  E= 1.845125D+00

 Vector   56  Occ=0.000000D+00  E= 1.849105D+00

 Vector   57  Occ=0.000000D+00  E= 1.849105D+00

 Vector   58  Occ=0.000000D+00  E= 1.849908D+00

 Vector   59  Occ=0.000000D+00  E= 1.849916D+00

 Vector   60  Occ=0.000000D+00  E= 2.025468D+00

 Vector   61  Occ=0.000000D+00  E= 2.025468D+00

 Vector   62  Occ=0.000000D+00  E= 2.046883D+00

 Vector   63  Occ=0.000000D+00  E= 2.046883D+00

 Vector   64  Occ=0.000000D+00  E= 2.062748D+00

 Vector   65  Occ=0.000000D+00  E= 2.620267D+00

 Vector   66  Occ=0.000000D+00  E= 2.620267D+00

 Vector   67  Occ=0.000000D+00  E= 2.642598D+00

 Vector   68  Occ=0.000000D+00  E= 2.950492D+00

 Vector   69  Occ=0.000000D+00  E= 3.898717D+00

 Vector   70  Occ=0.000000D+00  E= 3.958543D+00

 Vector   71  Occ=0.000000D+00  E= 3.958543D+00

 Vector   72  Occ=0.000000D+00  E= 3.975142D+00

 Vector   73  Occ=0.000000D+00  E= 5.046803D+00

 Vector   74  Occ=0.000000D+00  E= 5.046803D+00

 Vector   75  Occ=0.000000D+00  E= 5.047820D+00

 Vector   76  Occ=0.000000D+00  E= 5.047827D+00

 Vector   77  Occ=0.000000D+00  E= 5.065929D+00

 Vector   78  Occ=0.000000D+00  E= 5.620180D+00

 Vector   79  Occ=0.000000D+00  E= 5.621196D+00

 Vector   80  Occ=0.000000D+00  E= 5.621196D+00

 Vector   81  Occ=0.000000D+00  E= 5.624105D+00

 Vector   82  Occ=0.000000D+00  E= 5.624132D+00

 Vector   83  Occ=0.000000D+00  E= 5.627755D+00

 Vector   84  Occ=0.000000D+00  E= 5.627755D+00

 Vector   85  Occ=0.000000D+00  E= 5.629979D+00

 Vector   86  Occ=0.000000D+00  E= 5.629980D+00

 Vector   87  Occ=0.000000D+00  E= 6.264208D+00

 Vector   88  Occ=0.000000D+00  E= 6.264208D+00

 Vector   89  Occ=0.000000D+00  E= 6.265083D+00

 Vector   90  Occ=0.000000D+00  E= 6.265969D+00

 Vector   91  Occ=0.000000D+00  E= 6.265969D+00

 Vector   92  Occ=0.000000D+00  E= 6.267444D+00

 Vector   93  Occ=0.000000D+00  E= 6.267444D+00

 Vector   94  Occ=0.000000D+00  E= 6.971739D+00

 Vector   95  Occ=0.000000D+00  E= 6.974865D+00

 Vector   96  Occ=0.000000D+00  E= 6.974865D+00

 Vector   97  Occ=0.000000D+00  E= 6.989928D+00

 Vector   98  Occ=0.000000D+00  E= 6.989928D+00

 Vector   99  Occ=0.000000D+00  E= 7.014956D+00

 Vector  100  Occ=0.000000D+00  E= 7.014956D+00

 Vector  101  Occ=0.000000D+00  E= 7.482905D+00

 Vector  102  Occ=0.000000D+00  E= 7.482905D+00

 Vector  103  Occ=0.000000D+00  E= 7.494574D+00

 Vector  104  Occ=0.000000D+00  E= 8.284607D+00

 Vector  105  Occ=0.000000D+00  E= 8.284607D+00

 Vector  106  Occ=0.000000D+00  E= 8.286804D+00

 Vector  107  Occ=0.000000D+00  E= 8.319174D+00

 Vector  108  Occ=0.000000D+00  E= 8.319174D+00

 Vector  109  Occ=0.000000D+00  E= 8.571628D+00

 Vector  110  Occ=0.000000D+00  E= 1.193558D+01

 Vector  111  Occ=0.000000D+00  E= 1.193558D+01

 Vector  112  Occ=0.000000D+00  E= 1.194236D+01

 Vector  113  Occ=0.000000D+00  E= 2.213474D+01

 Vector  114  Occ=0.000000D+00  E= 3.146899D+01

 Vector  115  Occ=0.000000D+00  E= 3.963118D+01

 Vector  116  Occ=0.000000D+00  E= 9.527827D+01

     Multipole analysis of the density
     ---------------------------------

     L   x y z        total         alpha         beta         nuclear
     -   - - -        -----         -----         ----         -------
     0   0 0 0     -0.000000    -19.000000    -14.000000     33.000000

     1   1 0 0     -0.000003     -0.000003      0.000000      0.000000
     1   0 1 0     -0.000003     -0.000003      0.000000      0.000000
     1   0 0 1     -3.166215      4.245820     -7.412035      0.000000

     2   2 0 0    -14.489577    -10.623823     -3.865754      0.000000
     2   1 1 0     -0.000000     -0.000000     -0.000000      0.000000
     2   1 0 1      0.000006      0.000006      0.000000      0.000000
     2   0 2 0    -14.489577    -10.623823     -3.865754      0.000000
     2   0 1 1      0.000007      0.000006      0.000000      0.000000

 Total times  cpu:      307.1s     wall:      311.3s
