 Output coordinates in angstroms (scale by  1.889725989 to convert to a.u.)

  No.       Tag          Charge          X              Y              Z
 ---- ---------------- ---------- -------------- -------------- --------------
    1 Cr                  24.0000     0.00000000     0.00000000    -0.12511400
    2 H                    1.0000     0.00000000     0.00000000     3.00273600

         Total DFT energy =    -1044.986545691400

                    DFT Final Alpha Molecular Orbital Analysis
                    ------------------------------------------

 Vector    1  Occ=1.000000D+00  E=-2.148773D+02

 Vector   16  Occ=0.000000D+00  E=-9.590905D-03

 Vector   17  Occ=0.000000D+00  E= 2.445443D-02

 Vector   18  Occ=0.000000D+00  E= 2.445443D-02

 Vector   19  Occ=0.000000D+00  E= 4.150550D-02

 Vector   20  Occ=0.000000D+00  E= 9.395926D-02

 Vector   21  Occ=0.000000D+00  E= 1.241367D-01

 Vector   22  Occ=0.000000D+00  E= 1.241367D-01

 Vector   23  Occ=0.000000D+00  E= 1.366663D-01

 Vector   24  Occ=0.000000D+00  E= 1.367115D-01

 Vector   25  Occ=0.000000D+00  E= 1.553791D-01

 Vector   26  Occ=0.000000D+00  E= 2.213648D-01

 Vector   27  Occ=0.000000D+00  E= 2.799863D-01

 Vector   28  Occ=0.000000D+00  E= 3.251683D-01

 Vector   29  Occ=0.000000D+00  E= 3.251683D-01

 Vector   30  Occ=0.000000D+00  E= 3.542315D-01

 Vector   31  Occ=0.000000D+00  E= 4.921940D-01

 Vector   32  Occ=0.000000D+00  E= 5.258897D-01

 Vector   33  Occ=0.000000D+00  E= 5.259096D-01

 Vector   34  Occ=0.000000D+00  E= 5.274068D-01

 Vector   35  Occ=0.000000D+00  E= 5.274068D-01

 Vector   36  Occ=0.000000D+00  E= 6.114398D-01

 Vector   37  Occ=0.000000D+00  E= 6.114398D-01

 Vector   38  Occ=0.000000D+00  E= 7.178959D-01

 Vector   39  Occ=0.000000D+00  E= 8.837966D-01

 Vector   40  Occ=0.000000D+00  E= 1.103267D+00

 Vector   41  Occ=0.000000D+00  E= 1.359991D+00

 Vector   42  Occ=0.000000D+00  E= 1.359991D+00

 Vector   43  Occ=0.000000D+00  E= 1.363319D+00

 Vector   44  Occ=0.000000D+00  E= 1.577066D+00

 Vector   45  Occ=0.000000D+00  E= 1.577070D+00

 Vector   46  Occ=0.000000D+00  E= 1.577229D+00

 Vector   47  Occ=0.000000D+00  E= 1.577229D+00

 Vector   48  Occ=0.000000D+00  E= 1.577369D+00

 Vector   49  Occ=0.000000D+00  E= 1.577369D+00

 Vector   50  Occ=0.000000D+00  E= 1.586187D+00

 Vector   51  Occ=0.000000D+00  E= 1.636554D+00

 Vector   52  Occ=0.000000D+00  E= 1.891131D+00

 Vector   53  Occ=0.000000D+00  E= 1.891131D+00

 Vector   54  Occ=0.000000D+00  E= 1.891375D+00

 Vector   55  Occ=0.000000D+00  E= 1.891378D+00

 Vector   56  Occ=0.000000D+00  E= 1.931061D+00

 Vector   57  Occ=0.000000D+00  E= 3.273728D+00

 Vector   58  Occ=0.000000D+00  E= 3.273728D+00

 Vector   59  Occ=0.000000D+00  E= 3.274414D+00

 Vector   60  Occ=0.000000D+00  E= 3.274414D+00

 Vector   61  Occ=0.000000D+00  E= 3.296579D+00

 Vector   62  Occ=0.000000D+00  E= 3.754873D+00

 Vector   63  Occ=0.000000D+00  E= 3.754873D+00

 Vector   64  Occ=0.000000D+00  E= 3.819892D+00

 Vector   65  Occ=0.000000D+00  E= 3.951585D+00

 Vector   66  Occ=0.000000D+00  E= 4.001436D+00

 Vector   67  Occ=0.000000D+00  E= 4.001436D+00

 Vector   68  Occ=0.000000D+00  E= 4.065483D+00

 Vector   69  Occ=0.000000D+00  E= 4.617360D+00

 Vector   70  Occ=0.000000D+00  E= 5.092906D+00

 Vector   71  Occ=0.000000D+00  E= 5.092906D+00

 Vector   72  Occ=0.000000D+00  E= 5.092957D+00

 Vector   73  Occ=0.000000D+00  E= 5.092979D+00

 Vector   74  Occ=0.000000D+00  E= 5.131611D+00

 Vector   75  Occ=0.000000D+00  E= 5.673486D+00

 Vector   76  Occ=0.000000D+00  E= 5.674049D+00

 Vector   77  Occ=0.000000D+00  E= 5.674049D+00

 Vector   78  Occ=0.000000D+00  E= 5.675504D+00

 Vector   79  Occ=0.000000D+00  E= 5.675538D+00

 Vector   80  Occ=0.000000D+00  E= 5.677227D+00

 Vector   81  Occ=0.000000D+00  E= 5.677227D+00

 Vector   82  Occ=0.000000D+00  E= 5.677924D+00

 Vector   83  Occ=0.000000D+00  E= 5.677927D+00

 Vector   84  Occ=0.000000D+00  E= 6.311720D+00

 Vector   85  Occ=0.000000D+00  E= 6.311720D+00

 Vector   86  Occ=0.000000D+00  E= 6.312952D+00

 Vector   87  Occ=0.000000D+00  E= 6.312952D+00

 Vector   88  Occ=0.000000D+00  E= 6.313642D+00

 Vector   89  Occ=0.000000D+00  E= 6.313642D+00

 Vector   90  Occ=0.000000D+00  E= 6.314059D+00

 Vector   91  Occ=0.000000D+00  E= 1.198144D+01

 Vector   92  Occ=0.000000D+00  E= 1.198144D+01

 Vector   93  Occ=0.000000D+00  E= 1.199830D+01

 Vector   94  Occ=0.000000D+00  E= 3.151374D+01

 Vector   95  Occ=0.000000D+00  E= 3.966136D+01

     Multipole analysis of the density
     ---------------------------------

     L   x y z        total         alpha         beta         nuclear
     -   - - -        -----         -----         ----         -------
     0   0 0 0     -0.000000    -15.000000    -10.000000     25.000000

     1   1 0 0     -0.000000     -0.000000      0.000000      0.000000
     1   0 1 0     -0.000000     -0.000000      0.000000      0.000000
     1   0 0 1     -0.989063      2.430241     -3.419304      0.000000

     2   2 0 0    -13.081405    -10.354093     -2.727312      0.000000
     2   1 1 0      0.000000      0.000000      0.000000      0.000000
     2   1 0 1     -0.000000     -0.000000      0.000000      0.000000
     2   0 2 0    -13.081405    -10.354093     -2.727312      0.000000
     2   0 1 1     -0.000000     -0.000000      0.000000      0.000000

 Total times  cpu:       84.9s     wall:       92.8s
