 Output coordinates in angstroms (scale by  1.889725989 to convert to a.u.)

  No.       Tag          Charge          X              Y              Z
 ---- ---------------- ---------- -------------- -------------- --------------
    1 Cu                  29.0000     0.00000000     0.00000000    -0.70357622
    2 O                    8.0000     0.00000000     0.00000000     2.55046378

         Total DFT energy =    -1715.649591629455

                    DFT Final Alpha Molecular Orbital Analysis
                    ------------------------------------------

 Vector    1  Occ=1.000000D+00  E=-3.220683D+02

 Vector   37  Occ=0.000000D+00  E= 6.718440D-01

 Vector   38  Occ=0.000000D+00  E= 8.159694D-01

 Vector   39  Occ=0.000000D+00  E= 8.159792D-01

 Vector   40  Occ=0.000000D+00  E= 8.275255D-01

 Vector   41  Occ=0.000000D+00  E= 8.279925D-01

 Vector   42  Occ=0.000000D+00  E= 8.450124D-01

 Vector   43  Occ=0.000000D+00  E= 9.000757D-01

 Vector   44  Occ=0.000000D+00  E= 1.489190D+00

 Vector   45  Occ=0.000000D+00  E= 1.494643D+00

 Vector   46  Occ=0.000000D+00  E= 1.501434D+00

 Vector   47  Occ=0.000000D+00  E= 1.514773D+00

 Vector   48  Occ=0.000000D+00  E= 1.538600D+00

 Vector   49  Occ=0.000000D+00  E= 2.016112D+00

 Vector   50  Occ=0.000000D+00  E= 2.021596D+00

 Vector   51  Occ=0.000000D+00  E= 2.058028D+00

 Vector   52  Occ=0.000000D+00  E= 2.075762D+00

 Vector   53  Occ=0.000000D+00  E= 2.227935D+00

 Vector   54  Occ=0.000000D+00  E= 2.803827D+00

 Vector   55  Occ=0.000000D+00  E= 2.804055D+00

 Vector   56  Occ=0.000000D+00  E= 2.850010D+00

 Vector   57  Occ=0.000000D+00  E= 3.335699D+00

 Vector   58  Occ=0.000000D+00  E= 3.335703D+00

 Vector   59  Occ=0.000000D+00  E= 3.335743D+00

 Vector   60  Occ=0.000000D+00  E= 3.335744D+00

 Vector   61  Occ=0.000000D+00  E= 3.336176D+00

 Vector   62  Occ=0.000000D+00  E= 3.336219D+00

 Vector   63  Occ=0.000000D+00  E= 3.340295D+00

 Vector   64  Occ=0.000000D+00  E= 3.386985D+00

 Vector   65  Occ=0.000000D+00  E= 3.386986D+00

 Vector   66  Occ=0.000000D+00  E= 3.392813D+00

 Vector   67  Occ=0.000000D+00  E= 3.392988D+00

 Vector   68  Occ=0.000000D+00  E= 3.406200D+00

 Vector   69  Occ=0.000000D+00  E= 5.175092D+00

 Vector   70  Occ=0.000000D+00  E= 5.176814D+00

 Vector   71  Occ=0.000000D+00  E= 5.181983D+00

 Vector   72  Occ=0.000000D+00  E= 5.182598D+00

 Vector   73  Occ=0.000000D+00  E= 5.202265D+00

 Vector   74  Occ=0.000000D+00  E= 5.204571D+00

 Vector   75  Occ=0.000000D+00  E= 5.204978D+00

 Vector   76  Occ=0.000000D+00  E= 5.694439D+00

 Vector   77  Occ=0.000000D+00  E= 5.722944D+00

 Vector   78  Occ=0.000000D+00  E= 5.745596D+00

 Vector   79  Occ=0.000000D+00  E= 6.255395D+00

 Vector   80  Occ=0.000000D+00  E= 6.258491D+00

 Vector   81  Occ=0.000000D+00  E= 6.258557D+00

 Vector   82  Occ=0.000000D+00  E= 6.267943D+00

 Vector   83  Occ=0.000000D+00  E= 6.280621D+00

 Vector   84  Occ=0.000000D+00  E= 6.368960D+00

 Vector   85  Occ=0.000000D+00  E= 8.776943D+00

 Vector   86  Occ=0.000000D+00  E= 1.086434D+01

 Vector   87  Occ=0.000000D+00  E= 1.086434D+01

 Vector   88  Occ=0.000000D+00  E= 1.086784D+01

 Vector   89  Occ=0.000000D+00  E= 1.086795D+01

 Vector   90  Occ=0.000000D+00  E= 1.087472D+01

 Vector   91  Occ=0.000000D+00  E= 1.113414D+01

 Vector   92  Occ=0.000000D+00  E= 1.113438D+01

 Vector   93  Occ=0.000000D+00  E= 1.124342D+01

 Vector   94  Occ=0.000000D+00  E= 1.288412D+01

 Vector   95  Occ=0.000000D+00  E= 1.288413D+01

 Vector   96  Occ=0.000000D+00  E= 1.288421D+01

 Vector   97  Occ=0.000000D+00  E= 1.288423D+01

 Vector   98  Occ=0.000000D+00  E= 1.288427D+01

 Vector   99  Occ=0.000000D+00  E= 1.288439D+01

 Vector  100  Occ=0.000000D+00  E= 1.288440D+01

 Vector  101  Occ=0.000000D+00  E= 1.288474D+01

 Vector  102  Occ=0.000000D+00  E= 1.288474D+01

 Vector  103  Occ=0.000000D+00  E= 1.297666D+01

 Vector  104  Occ=0.000000D+00  E= 1.297666D+01

 Vector  105  Occ=0.000000D+00  E= 1.297681D+01

 Vector  106  Occ=0.000000D+00  E= 1.297682D+01

 Vector  107  Occ=0.000000D+00  E= 1.297704D+01

 Vector  108  Occ=0.000000D+00  E= 1.297715D+01

 Vector  109  Occ=0.000000D+00  E= 1.297830D+01

 Vector  110  Occ=0.000000D+00  E= 1.646319D+01

 Vector  111  Occ=0.000000D+00  E= 2.422053D+01

 Vector  112  Occ=0.000000D+00  E= 2.926466D+01

 Vector  113  Occ=0.000000D+00  E= 2.926483D+01

 Vector  114  Occ=0.000000D+00  E= 2.927505D+01

 Vector  115  Occ=0.000000D+00  E= 6.714067D+01

 Vector  116  Occ=0.000000D+00  E= 7.150557D+01

     Multipole analysis of the density
     ---------------------------------

     L   x y z        total         alpha         beta         nuclear
     -   - - -        -----         -----         ----         -------
     0   0 0 0     -0.000000    -19.000000    -18.000000     37.000000

     1   1 0 0      0.000001      0.000000      0.000001      0.000000
     1   0 1 0     -0.000006      0.000001     -0.000007      0.000000
     1   0 0 1     -1.467879     -5.371031      3.903151      0.000000

     2   2 0 0    -14.040194     -6.067022     -7.973172      0.000000
     2   1 1 0      0.357595      0.009400      0.348195      0.000000
     2   1 0 1      0.000000      0.000000      0.000000      0.000000
     2   0 2 0    -13.380572     -6.049576     -7.330995      0.000000
     2   0 1 1      0.000010     -0.000000      0.000011      0.000000

 Total times  cpu:      569.8s     wall:      606.9s
