 Output coordinates in angstroms (scale by  1.889725989 to convert to a.u.)

  No.       Tag          Charge          X              Y              Z
 ---- ---------------- ---------- -------------- -------------- --------------
    1 Mn                  25.0000     0.00000000     0.00000000    -0.12464385
    2 H                    1.0000     0.00000000     0.00000000     3.11609615

         Total DFT energy =    -1151.466537382688

                    DFT Final Alpha Molecular Orbital Analysis
                    ------------------------------------------

 Vector    1  Occ=1.000000D+00  E=-2.345727D+02

 Vector   16  Occ=0.000000D+00  E= 3.019100D-02

 Vector   17  Occ=0.000000D+00  E= 3.019100D-02

 Vector   18  Occ=0.000000D+00  E= 4.924995D-02

 Vector   19  Occ=0.000000D+00  E= 7.677118D-02

 Vector   20  Occ=0.000000D+00  E= 1.893196D-01

 Vector   21  Occ=0.000000D+00  E= 2.150697D-01

 Vector   22  Occ=0.000000D+00  E= 2.150697D-01

 Vector   23  Occ=0.000000D+00  E= 2.225717D-01

 Vector   24  Occ=0.000000D+00  E= 2.478182D-01

 Vector   25  Occ=0.000000D+00  E= 3.302750D-01

 Vector   26  Occ=0.000000D+00  E= 4.104659D-01

 Vector   27  Occ=0.000000D+00  E= 4.229413D-01

 Vector   28  Occ=0.000000D+00  E= 4.229413D-01

 Vector   29  Occ=0.000000D+00  E= 5.049067D-01

 Vector   30  Occ=0.000000D+00  E= 8.390099D-01

 Vector   31  Occ=0.000000D+00  E= 8.459252D-01

 Vector   32  Occ=0.000000D+00  E= 8.622166D-01

 Vector   33  Occ=0.000000D+00  E= 8.622166D-01

 Vector   34  Occ=0.000000D+00  E= 8.773863D-01

 Vector   35  Occ=0.000000D+00  E= 8.833019D-01

 Vector   36  Occ=0.000000D+00  E= 1.834507D+00

 Vector   37  Occ=0.000000D+00  E= 1.834507D+00

 Vector   38  Occ=0.000000D+00  E= 1.854041D+00

 Vector   39  Occ=0.000000D+00  E= 2.058286D+00

 Vector   40  Occ=0.000000D+00  E= 2.058286D+00

 Vector   41  Occ=0.000000D+00  E= 2.058416D+00

 Vector   42  Occ=0.000000D+00  E= 2.066126D+00

 Vector   43  Occ=0.000000D+00  E= 2.073154D+00

 Vector   44  Occ=0.000000D+00  E= 2.084151D+00

 Vector   45  Occ=0.000000D+00  E= 2.084151D+00

 Vector   46  Occ=0.000000D+00  E= 2.090458D+00

 Vector   47  Occ=0.000000D+00  E= 2.452100D+00

 Vector   48  Occ=0.000000D+00  E= 2.788974D+00

 Vector   49  Occ=0.000000D+00  E= 2.812747D+00

 Vector   50  Occ=0.000000D+00  E= 2.812747D+00

 Vector   51  Occ=0.000000D+00  E= 2.826821D+00

 Vector   52  Occ=0.000000D+00  E= 2.838864D+00

 Vector   53  Occ=0.000000D+00  E= 3.827126D+00

 Vector   54  Occ=0.000000D+00  E= 3.827126D+00

 Vector   55  Occ=0.000000D+00  E= 5.507928D+00

 Vector   56  Occ=0.000000D+00  E= 5.993386D+00

 Vector   57  Occ=0.000000D+00  E= 5.999988D+00

 Vector   58  Occ=0.000000D+00  E= 5.999988D+00

 Vector   59  Occ=0.000000D+00  E= 6.158604D+00

 Vector   60  Occ=0.000000D+00  E= 7.091697D+00

 Vector   61  Occ=0.000000D+00  E= 7.091697D+00

 Vector   62  Occ=0.000000D+00  E= 7.095351D+00

 Vector   63  Occ=0.000000D+00  E= 7.099217D+00

 Vector   64  Occ=0.000000D+00  E= 7.112024D+00

 Vector   65  Occ=0.000000D+00  E= 7.142559D+00

 Vector   66  Occ=0.000000D+00  E= 7.142559D+00

 Vector   67  Occ=0.000000D+00  E= 7.142867D+00

 Vector   68  Occ=0.000000D+00  E= 7.144390D+00

 Vector   69  Occ=0.000000D+00  E= 7.160906D+00

 Vector   70  Occ=0.000000D+00  E= 7.161159D+00

 Vector   71  Occ=0.000000D+00  E= 7.161159D+00

 Vector   72  Occ=0.000000D+00  E= 7.163297D+00

 Vector   73  Occ=0.000000D+00  E= 7.170764D+00

 Vector   74  Occ=0.000000D+00  E= 7.998048D+00

 Vector   75  Occ=0.000000D+00  E= 7.998048D+00

 Vector   76  Occ=0.000000D+00  E= 7.998835D+00

 Vector   77  Occ=0.000000D+00  E= 7.999825D+00

 Vector   78  Occ=0.000000D+00  E= 8.029680D+00

 Vector   79  Occ=0.000000D+00  E= 8.029680D+00

 Vector   80  Occ=0.000000D+00  E= 8.030298D+00

 Vector   81  Occ=0.000000D+00  E= 1.378614D+01

 Vector   82  Occ=0.000000D+00  E= 1.384211D+01

 Vector   83  Occ=0.000000D+00  E= 1.514103D+01

 Vector   84  Occ=0.000000D+00  E= 1.514104D+01

 Vector   85  Occ=0.000000D+00  E= 1.574689D+01

 Vector   86  Occ=0.000000D+00  E= 1.637446D+01

 Vector   87  Occ=0.000000D+00  E= 1.639056D+01

 Vector   88  Occ=0.000000D+00  E= 1.639056D+01

 Vector   89  Occ=0.000000D+00  E= 1.651938D+01

 Vector   90  Occ=0.000000D+00  E= 2.585724D+01

 Vector   91  Occ=0.000000D+00  E= 2.614561D+01

 Vector   92  Occ=0.000000D+00  E= 2.614561D+01

 Vector   93  Occ=0.000000D+00  E= 3.850535D+01

 Vector   94  Occ=0.000000D+00  E= 5.267244D+01

 Vector   95  Occ=0.000000D+00  E= 1.031891D+02

     Multipole analysis of the density
     ---------------------------------

     L   x y z        total         alpha         beta         nuclear
     -   - - -        -----         -----         ----         -------
     0   0 0 0     -0.000000    -16.000000    -10.000000     26.000000

     1   1 0 0     -0.000000     -0.000000      0.000000      0.000000
     1   0 1 0     -0.000000     -0.000000      0.000000      0.000000
     1   0 0 1      0.163962     -2.189493      2.353455      0.000000

     2   2 0 0    -13.348943    -10.610767     -2.738176      0.000000
     2   1 1 0      0.000000      0.000000     -0.000000      0.000000
     2   1 0 1     -0.000000      0.000000     -0.000000      0.000000
     2   0 2 0    -13.348943    -10.610767     -2.738176      0.000000
     2   0 1 1     -0.000000      0.000000     -0.000000      0.000000

 Total times  cpu:       80.7s     wall:       94.0s
