 Output coordinates in angstroms (scale by  1.889725989 to convert to a.u.)

  No.       Tag          Charge          X              Y              Z
 ---- ---------------- ---------- -------------- -------------- --------------
    1 Mn                  25.0000     0.00000000     0.00000000    -0.74632000
    2 O                    8.0000     0.00000000     0.00000000     2.33225000

         Total DFT energy =    -1226.108476511220

                    DFT Final Alpha Molecular Orbital Analysis
                    ------------------------------------------

 Vector    1  Occ=1.000000D+00  E=-2.347163D+02

 Vector   37  Occ=0.000000D+00  E= 5.967622D-01

 Vector   38  Occ=0.000000D+00  E= 7.708295D-01

 Vector   39  Occ=0.000000D+00  E= 7.820599D-01

 Vector   40  Occ=0.000000D+00  E= 7.842701D-01

 Vector   41  Occ=0.000000D+00  E= 8.015189D-01

 Vector   42  Occ=0.000000D+00  E= 8.099449D-01

 Vector   43  Occ=0.000000D+00  E= 8.206036D-01

 Vector   44  Occ=0.000000D+00  E= 1.474541D+00

 Vector   45  Occ=0.000000D+00  E= 1.486765D+00

 Vector   46  Occ=0.000000D+00  E= 1.492319D+00

 Vector   47  Occ=0.000000D+00  E= 1.508839D+00

 Vector   48  Occ=0.000000D+00  E= 1.521431D+00

 Vector   49  Occ=0.000000D+00  E= 1.748158D+00

 Vector   50  Occ=0.000000D+00  E= 1.749827D+00

 Vector   51  Occ=0.000000D+00  E= 1.808854D+00

 Vector   52  Occ=0.000000D+00  E= 1.952491D+00

 Vector   53  Occ=0.000000D+00  E= 1.964093D+00

 Vector   54  Occ=0.000000D+00  E= 1.965162D+00

 Vector   55  Occ=0.000000D+00  E= 1.966371D+00

 Vector   56  Occ=0.000000D+00  E= 1.970017D+00

 Vector   57  Occ=0.000000D+00  E= 1.975210D+00

 Vector   58  Occ=0.000000D+00  E= 1.980032D+00

 Vector   59  Occ=0.000000D+00  E= 2.000204D+00

 Vector   60  Occ=0.000000D+00  E= 2.044249D+00

 Vector   61  Occ=0.000000D+00  E= 2.047660D+00

 Vector   62  Occ=0.000000D+00  E= 2.072432D+00

 Vector   63  Occ=0.000000D+00  E= 2.290774D+00

 Vector   64  Occ=0.000000D+00  E= 2.712495D+00

 Vector   65  Occ=0.000000D+00  E= 2.716450D+00

 Vector   66  Occ=0.000000D+00  E= 2.721427D+00

 Vector   67  Occ=0.000000D+00  E= 2.725273D+00

 Vector   68  Occ=0.000000D+00  E= 2.744768D+00

 Vector   69  Occ=0.000000D+00  E= 5.159617D+00

 Vector   70  Occ=0.000000D+00  E= 5.162425D+00

 Vector   71  Occ=0.000000D+00  E= 5.175361D+00

 Vector   72  Occ=0.000000D+00  E= 5.176380D+00

 Vector   73  Occ=0.000000D+00  E= 5.186808D+00

 Vector   74  Occ=0.000000D+00  E= 5.202722D+00

 Vector   75  Occ=0.000000D+00  E= 5.204275D+00

 Vector   76  Occ=0.000000D+00  E= 5.694906D+00

 Vector   77  Occ=0.000000D+00  E= 5.706034D+00

 Vector   78  Occ=0.000000D+00  E= 5.713811D+00

 Vector   79  Occ=0.000000D+00  E= 5.881792D+00

 Vector   80  Occ=0.000000D+00  E= 5.890068D+00

 Vector   81  Occ=0.000000D+00  E= 5.906545D+00

 Vector   82  Occ=0.000000D+00  E= 6.055094D+00

 Vector   83  Occ=0.000000D+00  E= 6.196377D+00

 Vector   84  Occ=0.000000D+00  E= 6.207986D+00

 Vector   85  Occ=0.000000D+00  E= 6.226755D+00

 Vector   86  Occ=0.000000D+00  E= 6.245079D+00

 Vector   87  Occ=0.000000D+00  E= 6.255089D+00

 Vector   88  Occ=0.000000D+00  E= 6.360891D+00

 Vector   89  Occ=0.000000D+00  E= 6.977437D+00

 Vector   90  Occ=0.000000D+00  E= 6.982422D+00

 Vector   91  Occ=0.000000D+00  E= 6.992382D+00

 Vector   92  Occ=0.000000D+00  E= 6.997730D+00

 Vector   93  Occ=0.000000D+00  E= 7.016527D+00

 Vector   94  Occ=0.000000D+00  E= 7.016717D+00

 Vector   95  Occ=0.000000D+00  E= 7.019438D+00

 Vector   96  Occ=0.000000D+00  E= 7.029524D+00

 Vector   97  Occ=0.000000D+00  E= 7.029796D+00

 Vector   98  Occ=0.000000D+00  E= 7.032896D+00

 Vector   99  Occ=0.000000D+00  E= 7.033602D+00

 Vector  100  Occ=0.000000D+00  E= 7.034662D+00

 Vector  101  Occ=0.000000D+00  E= 7.037601D+00

 Vector  102  Occ=0.000000D+00  E= 7.039120D+00

 Vector  103  Occ=0.000000D+00  E= 7.874306D+00

 Vector  104  Occ=0.000000D+00  E= 7.877480D+00

 Vector  105  Occ=0.000000D+00  E= 7.884318D+00

 Vector  106  Occ=0.000000D+00  E= 7.885470D+00

 Vector  107  Occ=0.000000D+00  E= 7.890863D+00

 Vector  108  Occ=0.000000D+00  E= 7.891438D+00

 Vector  109  Occ=0.000000D+00  E= 7.899960D+00

 Vector  110  Occ=0.000000D+00  E= 1.625128D+01

 Vector  111  Occ=0.000000D+00  E= 1.626070D+01

 Vector  112  Occ=0.000000D+00  E= 1.626879D+01

 Vector  113  Occ=0.000000D+00  E= 1.644708D+01

 Vector  114  Occ=0.000000D+00  E= 5.253159D+01

 Vector  115  Occ=0.000000D+00  E= 7.153499D+01

 Vector  116  Occ=0.000000D+00  E= 1.030698D+02

     Multipole analysis of the density
     ---------------------------------

     L   x y z        total         alpha         beta         nuclear
     -   - - -        -----         -----         ----         -------
     0   0 0 0     -0.000000    -19.000000    -14.000000     33.000000

     1   1 0 0      0.018406      0.008824      0.009582      0.000000
     1   0 1 0     -0.048724      0.015034     -0.063759      0.000000
     1   0 0 1     -1.917686      1.198153     -3.115838      0.000000

     2   2 0 0    -15.467110     -9.326837     -6.140273      0.000000
     2   1 1 0     -0.000252     -0.071671      0.071418      0.000000
     2   1 0 1     -0.282985      0.100114     -0.383099      0.000000
     2   0 2 0    -16.633860     -9.159607     -7.474253      0.000000
     2   0 1 1      0.759111     -0.177435      0.936546      0.000000

 Total times  cpu:     1253.3s     wall:     1308.4s
