 Output coordinates in angstroms (scale by  1.889725989 to convert to a.u.)

  No.       Tag          Charge          X              Y              Z
 ---- ---------------- ---------- -------------- -------------- --------------
    1 Sc                  21.0000     0.00000000     0.00000000     2.41679000
    2 Sc                  21.0000     0.00000000     0.00000000    -2.41679000

         Total DFT energy =    -1521.269984547342

                    DFT Final Alpha Molecular Orbital Analysis
                    ------------------------------------------

 Vector    1  Occ=1.000000D+00  E=-1.610016D+02

 Vector   81  Occ=0.000000D+00  E= 4.951233D-01

 Vector   82  Occ=0.000000D+00  E= 5.415220D-01

 Vector   83  Occ=0.000000D+00  E= 5.415547D-01

 Vector   84  Occ=0.000000D+00  E= 5.670560D-01

 Vector   85  Occ=0.000000D+00  E= 5.670909D-01

 Vector   86  Occ=0.000000D+00  E= 5.793179D-01

 Vector   87  Occ=0.000000D+00  E= 6.020824D-01

 Vector   88  Occ=0.000000D+00  E= 6.966190D-01

 Vector   89  Occ=0.000000D+00  E= 8.217914D-01

 Vector   90  Occ=0.000000D+00  E= 8.643459D-01

 Vector   91  Occ=0.000000D+00  E= 8.753196D-01

 Vector   92  Occ=0.000000D+00  E= 8.797608D-01

 Vector   93  Occ=0.000000D+00  E= 8.842676D-01

 Vector   94  Occ=0.000000D+00  E= 8.842836D-01

 Vector   95  Occ=0.000000D+00  E= 8.876281D-01

 Vector   96  Occ=0.000000D+00  E= 8.925771D-01

 Vector   97  Occ=0.000000D+00  E= 9.094716D-01

 Vector   98  Occ=0.000000D+00  E= 9.094839D-01

 Vector   99  Occ=0.000000D+00  E= 9.634338D-01

 Vector  100  Occ=0.000000D+00  E= 9.679175D-01

 Vector  101  Occ=0.000000D+00  E= 1.059037D+00

 Vector  102  Occ=0.000000D+00  E= 1.059622D+00

 Vector  103  Occ=0.000000D+00  E= 1.062031D+00

 Vector  104  Occ=0.000000D+00  E= 1.062461D+00

 Vector  105  Occ=0.000000D+00  E= 1.064166D+00

 Vector  106  Occ=0.000000D+00  E= 1.064174D+00

 Vector  107  Occ=0.000000D+00  E= 1.066857D+00

 Vector  108  Occ=0.000000D+00  E= 1.067276D+00

 Vector  109  Occ=0.000000D+00  E= 1.067350D+00

 Vector  110  Occ=0.000000D+00  E= 1.067368D+00

 Vector  111  Occ=0.000000D+00  E= 1.074399D+00

 Vector  112  Occ=0.000000D+00  E= 1.074418D+00

 Vector  113  Occ=0.000000D+00  E= 1.082907D+00

 Vector  114  Occ=0.000000D+00  E= 1.083666D+00

 Vector  115  Occ=0.000000D+00  E= 1.090593D+00

 Vector  116  Occ=0.000000D+00  E= 1.151908D+00

 Vector  117  Occ=0.000000D+00  E= 1.151920D+00

 Vector  118  Occ=0.000000D+00  E= 1.285784D+00

 Vector  119  Occ=0.000000D+00  E= 1.321185D+00

 Vector  120  Occ=0.000000D+00  E= 1.328382D+00

 Vector  121  Occ=0.000000D+00  E= 1.330340D+00

 Vector  122  Occ=0.000000D+00  E= 1.330391D+00

 Vector  123  Occ=0.000000D+00  E= 1.340925D+00

 Vector  124  Occ=0.000000D+00  E= 1.340942D+00

 Vector  125  Occ=0.000000D+00  E= 1.343747D+00

 Vector  126  Occ=0.000000D+00  E= 1.343751D+00

 Vector  127  Occ=0.000000D+00  E= 1.345137D+00

 Vector  128  Occ=0.000000D+00  E= 1.352354D+00

 Vector  129  Occ=0.000000D+00  E= 1.374368D+00

 Vector  130  Occ=0.000000D+00  E= 1.406181D+00

 Vector  131  Occ=0.000000D+00  E= 1.406213D+00

 Vector  132  Occ=0.000000D+00  E= 1.478453D+00

 Vector  133  Occ=0.000000D+00  E= 1.478510D+00

 Vector  134  Occ=0.000000D+00  E= 1.499741D+00

 Vector  135  Occ=0.000000D+00  E= 1.499802D+00

 Vector  136  Occ=0.000000D+00  E= 1.555930D+00

 Vector  137  Occ=0.000000D+00  E= 1.600260D+00

 Vector  138  Occ=0.000000D+00  E= 1.661427D+00

 Vector  139  Occ=0.000000D+00  E= 1.794162D+00

 Vector  140  Occ=0.000000D+00  E= 1.798239D+00

 Vector  141  Occ=0.000000D+00  E= 2.094444D+00

 Vector  142  Occ=0.000000D+00  E= 2.103197D+00

 Vector  143  Occ=0.000000D+00  E= 2.104455D+00

 Vector  144  Occ=0.000000D+00  E= 2.104485D+00

 Vector  145  Occ=0.000000D+00  E= 2.107411D+00

 Vector  146  Occ=0.000000D+00  E= 2.116019D+00

 Vector  147  Occ=0.000000D+00  E= 2.117885D+00

 Vector  148  Occ=0.000000D+00  E= 2.117913D+00

 Vector  149  Occ=0.000000D+00  E= 2.185669D+00

 Vector  150  Occ=0.000000D+00  E= 2.213375D+00

 Vector  151  Occ=0.000000D+00  E= 4.190394D+00

 Vector  152  Occ=0.000000D+00  E= 4.190480D+00

 Vector  153  Occ=0.000000D+00  E= 4.205143D+00

 Vector  154  Occ=0.000000D+00  E= 4.205229D+00

 Vector  155  Occ=0.000000D+00  E= 4.230056D+00

 Vector  156  Occ=0.000000D+00  E= 4.267049D+00

 Vector  157  Occ=0.000000D+00  E= 5.300143D+00

 Vector  158  Occ=0.000000D+00  E= 5.393561D+00

 Vector  159  Occ=0.000000D+00  E= 4.738749D+01

 Vector  160  Occ=0.000000D+00  E= 4.779072D+01

     Multipole analysis of the density
     ---------------------------------

     L   x y z        total         alpha         beta         nuclear
     -   - - -        -----         -----         ----         -------
     0   0 0 0     -0.000000    -23.000000    -19.000000     42.000000

     1   1 0 0      0.001419      0.002855     -0.001436      0.000000
     1   0 1 0     -0.000459     -0.000844      0.000385      0.000000
     1   0 0 1      0.003876     -0.029522      0.033398      0.000000

     2   2 0 0    -31.905913    -22.177755     -9.728158      0.000000
     2   1 1 0     -0.002869     -0.002500     -0.000369      0.000000
     2   1 0 1     -0.002308     -0.002576      0.000267      0.000000
     2   0 2 0    -31.958502    -22.230730     -9.727772      0.000000
     2   0 1 1     -0.000050     -0.000003     -0.000047      0.000000

 Total times  cpu:     1158.3s     wall:     1188.2s
