 Output coordinates in angstroms (scale by  1.889725989 to convert to a.u.)

  No.       Tag          Charge          X              Y              Z
 ---- ---------------- ---------- -------------- -------------- --------------
    1 Ti                  22.0000     0.00000000     0.00000000    -0.81684800
    2 O                    8.0000     0.00000000     0.00000000     2.24633200

         Total DFT energy =     -924.531491999618

                    DFT Final Alpha Molecular Orbital Analysis
                    ------------------------------------------

 Vector    1  Occ=1.000000D+00  E=-1.781340D+02

 Vector   37  Occ=0.000000D+00  E= 4.920434D-01

 Vector   38  Occ=0.000000D+00  E= 5.030488D-01

 Vector   39  Occ=0.000000D+00  E= 5.035340D-01

 Vector   40  Occ=0.000000D+00  E= 5.121030D-01

 Vector   41  Occ=0.000000D+00  E= 5.138410D-01

 Vector   42  Occ=0.000000D+00  E= 6.167620D-01

 Vector   43  Occ=0.000000D+00  E= 7.122763D-01

 Vector   44  Occ=0.000000D+00  E= 7.137156D-01

 Vector   45  Occ=0.000000D+00  E= 7.196602D-01

 Vector   46  Occ=0.000000D+00  E= 7.234410D-01

 Vector   47  Occ=0.000000D+00  E= 7.250611D-01

 Vector   48  Occ=0.000000D+00  E= 7.289128D-01

 Vector   49  Occ=0.000000D+00  E= 7.509793D-01

 Vector   50  Occ=0.000000D+00  E= 7.547687D-01

 Vector   51  Occ=0.000000D+00  E= 7.552362D-01

 Vector   52  Occ=0.000000D+00  E= 8.523689D-01

 Vector   53  Occ=0.000000D+00  E= 9.462919D-01

 Vector   54  Occ=0.000000D+00  E= 1.112594D+00

 Vector   55  Occ=0.000000D+00  E= 1.478692D+00

 Vector   56  Occ=0.000000D+00  E= 1.484059D+00

 Vector   57  Occ=0.000000D+00  E= 1.486499D+00

 Vector   58  Occ=0.000000D+00  E= 1.517529D+00

 Vector   59  Occ=0.000000D+00  E= 1.582882D+00

 Vector   60  Occ=0.000000D+00  E= 1.841736D+00

 Vector   61  Occ=0.000000D+00  E= 1.850830D+00

 Vector   62  Occ=0.000000D+00  E= 1.866920D+00

 Vector   63  Occ=0.000000D+00  E= 1.869217D+00

 Vector   64  Occ=0.000000D+00  E= 1.878610D+00

 Vector   65  Occ=0.000000D+00  E= 1.884557D+00

 Vector   66  Occ=0.000000D+00  E= 1.901665D+00

 Vector   67  Occ=0.000000D+00  E= 1.959435D+00

 Vector   68  Occ=0.000000D+00  E= 2.024803D+00

 Vector   69  Occ=0.000000D+00  E= 2.068933D+00

 Vector   70  Occ=0.000000D+00  E= 2.070285D+00

 Vector   71  Occ=0.000000D+00  E= 2.287076D+00

 Vector   72  Occ=0.000000D+00  E= 2.610079D+00

 Vector   73  Occ=0.000000D+00  E= 2.610337D+00

 Vector   74  Occ=0.000000D+00  E= 2.621993D+00

 Vector   75  Occ=0.000000D+00  E= 2.622618D+00

 Vector   76  Occ=0.000000D+00  E= 2.627811D+00

 Vector   77  Occ=0.000000D+00  E= 2.629241D+00

 Vector   78  Occ=0.000000D+00  E= 2.629584D+00

 Vector   79  Occ=0.000000D+00  E= 2.639790D+00

 Vector   80  Occ=0.000000D+00  E= 2.652807D+00

 Vector   81  Occ=0.000000D+00  E= 2.964273D+00

 Vector   82  Occ=0.000000D+00  E= 2.967289D+00

 Vector   83  Occ=0.000000D+00  E= 2.987627D+00

 Vector   84  Occ=0.000000D+00  E= 2.991837D+00

 Vector   85  Occ=0.000000D+00  E= 3.000171D+00

 Vector   86  Occ=0.000000D+00  E= 3.002502D+00

 Vector   87  Occ=0.000000D+00  E= 3.048743D+00

 Vector   88  Occ=0.000000D+00  E= 4.163885D+00

 Vector   89  Occ=0.000000D+00  E= 4.773989D+00

 Vector   90  Occ=0.000000D+00  E= 4.783987D+00

 Vector   91  Occ=0.000000D+00  E= 4.789234D+00

 Vector   92  Occ=0.000000D+00  E= 5.007941D+00

 Vector   93  Occ=0.000000D+00  E= 5.021018D+00

 Vector   94  Occ=0.000000D+00  E= 5.031774D+00

 Vector   95  Occ=0.000000D+00  E= 5.034008D+00

 Vector   96  Occ=0.000000D+00  E= 5.042032D+00

 Vector   97  Occ=0.000000D+00  E= 5.137544D+00

 Vector   98  Occ=0.000000D+00  E= 5.148911D+00

 Vector   99  Occ=0.000000D+00  E= 5.160087D+00

 Vector  100  Occ=0.000000D+00  E= 5.165357D+00

 Vector  101  Occ=0.000000D+00  E= 5.175465D+00

 Vector  102  Occ=0.000000D+00  E= 5.201023D+00

 Vector  103  Occ=0.000000D+00  E= 5.218061D+00

 Vector  104  Occ=0.000000D+00  E= 5.655084D+00

 Vector  105  Occ=0.000000D+00  E= 5.716137D+00

 Vector  106  Occ=0.000000D+00  E= 5.731055D+00

 Vector  107  Occ=0.000000D+00  E= 6.141798D+00

 Vector  108  Occ=0.000000D+00  E= 6.151101D+00

 Vector  109  Occ=0.000000D+00  E= 6.160499D+00

 Vector  110  Occ=0.000000D+00  E= 6.202154D+00

 Vector  111  Occ=0.000000D+00  E= 6.287464D+00

 Vector  112  Occ=0.000000D+00  E= 6.379097D+00

 Vector  113  Occ=0.000000D+00  E= 1.642530D+01

 Vector  114  Occ=0.000000D+00  E= 3.287641D+01

 Vector  115  Occ=0.000000D+00  E= 3.773894D+01

 Vector  116  Occ=0.000000D+00  E= 7.157806D+01

     Multipole analysis of the density
     ---------------------------------

     L   x y z        total         alpha         beta         nuclear
     -   - - -        -----         -----         ----         -------
     0   0 0 0     -0.000000    -16.000000    -14.000000     30.000000

     1   1 0 0     -0.000369     -0.000397      0.000028      0.000000
     1   0 1 0     -0.000296     -0.000292     -0.000004      0.000000
     1   0 0 1     -2.379689      4.674732     -7.054421      0.000000

     2   2 0 0    -15.224691    -10.223823     -5.000868      0.000000
     2   1 1 0     -0.274533     -0.299676      0.025143      0.000000
     2   1 0 1      0.002005      0.001998      0.000006      0.000000
     2   0 2 0    -16.329716    -11.413786     -4.915930      0.000000
     2   0 1 1      0.003091      0.003126     -0.000036      0.000000

 Total times  cpu:      828.2s     wall:      852.2s
