 Output coordinates in angstroms (scale by  1.889725989 to convert to a.u.)

  No.       Tag          Charge          X              Y              Z
 ---- ---------------- ---------- -------------- -------------- --------------
    1 V                   23.0000     0.00000000     0.00000000     1.56552000
    2 V                   23.0000     0.00000000     0.00000000    -1.56552000

         Total DFT energy =    -1887.894099462120

                    DFT Final Alpha Molecular Orbital Analysis
                    ------------------------------------------

 Vector    1  Occ=1.000000D+00  E=-1.960995D+02

 Vector   81  Occ=0.000000D+00  E= 1.182727D+00

 Vector   82  Occ=0.000000D+00  E= 1.183303D+00

 Vector   83  Occ=0.000000D+00  E= 1.195430D+00

 Vector   84  Occ=0.000000D+00  E= 1.197946D+00

 Vector   85  Occ=0.000000D+00  E= 1.209135D+00

 Vector   86  Occ=0.000000D+00  E= 1.292206D+00

 Vector   87  Occ=0.000000D+00  E= 1.297367D+00

 Vector   88  Occ=0.000000D+00  E= 1.374024D+00

 Vector   89  Occ=0.000000D+00  E= 1.438223D+00

 Vector   90  Occ=0.000000D+00  E= 1.645178D+00

 Vector   91  Occ=0.000000D+00  E= 2.088415D+00

 Vector   92  Occ=0.000000D+00  E= 2.111899D+00

 Vector   93  Occ=0.000000D+00  E= 2.119888D+00

 Vector   94  Occ=0.000000D+00  E= 2.155559D+00

 Vector   95  Occ=0.000000D+00  E= 2.213629D+00

 Vector   96  Occ=0.000000D+00  E= 2.218005D+00

 Vector   97  Occ=0.000000D+00  E= 2.262498D+00

 Vector   98  Occ=0.000000D+00  E= 2.262895D+00

 Vector   99  Occ=0.000000D+00  E= 2.276293D+00

 Vector  100  Occ=0.000000D+00  E= 2.374408D+00

 Vector  101  Occ=0.000000D+00  E= 2.836200D+00

 Vector  102  Occ=0.000000D+00  E= 2.849710D+00

 Vector  103  Occ=0.000000D+00  E= 2.896091D+00

 Vector  104  Occ=0.000000D+00  E= 2.941715D+00

 Vector  105  Occ=0.000000D+00  E= 2.942360D+00

 Vector  106  Occ=0.000000D+00  E= 3.106216D+00

 Vector  107  Occ=0.000000D+00  E= 4.036738D+00

 Vector  108  Occ=0.000000D+00  E= 4.065166D+00

 Vector  109  Occ=0.000000D+00  E= 4.065699D+00

 Vector  110  Occ=0.000000D+00  E= 4.072545D+00

 Vector  111  Occ=0.000000D+00  E= 4.085029D+00

 Vector  112  Occ=0.000000D+00  E= 4.085613D+00

 Vector  113  Occ=0.000000D+00  E= 4.087764D+00

 Vector  114  Occ=0.000000D+00  E= 4.089241D+00

 Vector  115  Occ=0.000000D+00  E= 4.103348D+00

 Vector  116  Occ=0.000000D+00  E= 4.116248D+00

 Vector  117  Occ=0.000000D+00  E= 4.157921D+00

 Vector  118  Occ=0.000000D+00  E= 4.183933D+00

 Vector  119  Occ=0.000000D+00  E= 4.185278D+00

 Vector  120  Occ=0.000000D+00  E= 4.185728D+00

 Vector  121  Occ=0.000000D+00  E= 4.193377D+00

 Vector  122  Occ=0.000000D+00  E= 4.194717D+00

 Vector  123  Occ=0.000000D+00  E= 4.195675D+00

 Vector  124  Occ=0.000000D+00  E= 4.200471D+00

 Vector  125  Occ=0.000000D+00  E= 4.201840D+00

 Vector  126  Occ=0.000000D+00  E= 4.218173D+00

 Vector  127  Occ=0.000000D+00  E= 4.498495D+00

 Vector  128  Occ=0.000000D+00  E= 4.516670D+00

 Vector  129  Occ=0.000000D+00  E= 4.527839D+00

 Vector  130  Occ=0.000000D+00  E= 4.535637D+00

 Vector  131  Occ=0.000000D+00  E= 4.539307D+00

 Vector  132  Occ=0.000000D+00  E= 4.554213D+00

 Vector  133  Occ=0.000000D+00  E= 4.585403D+00

 Vector  134  Occ=0.000000D+00  E= 4.670312D+00

 Vector  135  Occ=0.000000D+00  E= 4.673897D+00

 Vector  136  Occ=0.000000D+00  E= 4.687717D+00

 Vector  137  Occ=0.000000D+00  E= 4.689685D+00

 Vector  138  Occ=0.000000D+00  E= 4.699972D+00

 Vector  139  Occ=0.000000D+00  E= 4.709098D+00

 Vector  140  Occ=0.000000D+00  E= 4.844351D+00

 Vector  141  Occ=0.000000D+00  E= 5.509537D+00

 Vector  142  Occ=0.000000D+00  E= 5.517840D+00

 Vector  143  Occ=0.000000D+00  E= 5.580091D+00

 Vector  144  Occ=0.000000D+00  E= 5.593359D+00

 Vector  145  Occ=0.000000D+00  E= 5.607865D+00

 Vector  146  Occ=0.000000D+00  E= 5.608864D+00

 Vector  147  Occ=0.000000D+00  E= 5.709030D+00

 Vector  148  Occ=0.000000D+00  E= 5.710648D+00

 Vector  149  Occ=0.000000D+00  E= 5.840920D+00

 Vector  150  Occ=0.000000D+00  E= 5.916374D+00

 Vector  151  Occ=0.000000D+00  E= 8.054916D+00

 Vector  152  Occ=0.000000D+00  E= 8.070505D+00

 Vector  153  Occ=0.000000D+00  E= 8.118016D+00

 Vector  154  Occ=0.000000D+00  E= 8.205791D+00

 Vector  155  Occ=0.000000D+00  E= 8.207780D+00

 Vector  156  Occ=0.000000D+00  E= 8.339783D+00

 Vector  157  Occ=0.000000D+00  E= 1.149975D+01

 Vector  158  Occ=0.000000D+00  E= 1.164246D+01

 Vector  159  Occ=0.000000D+00  E= 4.682226D+01

 Vector  160  Occ=0.000000D+00  E= 4.690367D+01

     Multipole analysis of the density
     ---------------------------------

     L   x y z        total         alpha         beta         nuclear
     -   - - -        -----         -----         ----         -------
     0   0 0 0     -0.000000    -24.000000    -22.000000     46.000000

     1   1 0 0     -0.005002      0.007871     -0.012873      0.000000
     1   0 1 0      0.018849     -0.007569      0.026418      0.000000
     1   0 0 1      0.004919     11.134034    -11.129115      0.000000

     2   2 0 0    -27.105948    -15.820753    -11.285195      0.000000
     2   1 1 0      0.211092      0.325459     -0.114366      0.000000
     2   1 0 1      0.055978      0.207929     -0.151951      0.000000
     2   0 2 0    -27.298617    -16.218268    -11.080349      0.000000
     2   0 1 1     -0.195690     -0.483892      0.288202      0.000000

 Total times  cpu:     4951.7s     wall:     5138.0s
