 Output coordinates in angstroms (scale by  1.889725989 to convert to a.u.)

  No.       Tag          Charge          X              Y              Z
 ---- ---------------- ---------- -------------- -------------- --------------
    1 C                    6.0000     0.00000000     0.00000000     0.00000000

         Total DFT energy =      -37.863440495209

                    DFT Final Alpha Molecular Orbital Analysis
                    ------------------------------------------

 Vector    1  Occ=1.000000D+00  E=-1.012432D+01

 Vector   11  Occ=0.000000D+00  E= 3.144873D-01

 Vector   12  Occ=0.000000D+00  E= 3.176769D-01

 Vector   13  Occ=0.000000D+00  E= 3.176771D-01

 Vector   14  Occ=0.000000D+00  E= 3.188076D-01

 Vector   15  Occ=0.000000D+00  E= 3.233231D-01

 Vector   16  Occ=0.000000D+00  E= 4.964948D-01

 Vector   17  Occ=0.000000D+00  E= 4.964948D-01

 Vector   18  Occ=0.000000D+00  E= 5.145906D-01

 Vector   19  Occ=0.000000D+00  E= 1.101245D+00

 Vector   20  Occ=0.000000D+00  E= 1.508002D+00

 Vector   21  Occ=0.000000D+00  E= 1.508002D+00

 Vector   22  Occ=0.000000D+00  E= 1.508817D+00

 Vector   23  Occ=0.000000D+00  E= 1.508817D+00

 Vector   24  Occ=0.000000D+00  E= 1.514876D+00

 Vector   25  Occ=0.000000D+00  E= 2.575895D+00

 Vector   26  Occ=0.000000D+00  E= 2.575895D+00

 Vector   27  Occ=0.000000D+00  E= 2.578835D+00

 Vector   28  Occ=0.000000D+00  E= 2.760925D+00

 Vector   29  Occ=0.000000D+00  E= 2.760926D+00

 Vector   30  Occ=0.000000D+00  E= 2.762682D+00

 Vector   31  Occ=0.000000D+00  E= 2.764457D+00

 Vector   32  Occ=0.000000D+00  E= 2.764458D+00

 Vector   33  Occ=0.000000D+00  E= 2.783423D+00

 Vector   34  Occ=0.000000D+00  E= 2.783423D+00

 Vector   35  Occ=0.000000D+00  E= 3.111576D+00

 Vector   36  Occ=0.000000D+00  E= 6.844863D+00

 Vector   37  Occ=0.000000D+00  E= 6.844863D+00

 Vector   38  Occ=0.000000D+00  E= 6.847320D+00

 Vector   39  Occ=0.000000D+00  E= 6.847320D+00

 Vector   40  Occ=0.000000D+00  E= 6.860850D+00

 Vector   41  Occ=0.000000D+00  E= 8.187455D+00

 Vector   42  Occ=0.000000D+00  E= 8.219819D+00

 Vector   43  Occ=0.000000D+00  E= 8.219819D+00

 Vector   44  Occ=0.000000D+00  E= 8.660738D+00

 Vector   45  Occ=0.000000D+00  E= 2.893027D+01

 Vector    1  Occ=1.000000D+00  E=-1.009253D+01

 Vector    2  Occ=1.000000D+00  E=-4.406453D-01

 Vector    3  Occ=0.000000D+00  E=-1.567881D-01

 Vector    4  Occ=0.000000D+00  E=-1.005113D-01

 Vector    5  Occ=0.000000D+00  E=-1.005113D-01

 Vector    6  Occ=0.000000D+00  E= 4.103737D-02

 Vector    7  Occ=0.000000D+00  E= 8.160458D-02

 Vector    8  Occ=0.000000D+00  E= 9.490778D-02

 Vector    9  Occ=0.000000D+00  E= 9.490778D-02

 Vector   10  Occ=0.000000D+00  E= 3.416148D-01

 Vector   11  Occ=0.000000D+00  E= 3.487453D-01

 Vector   12  Occ=0.000000D+00  E= 3.487454D-01

 Vector   13  Occ=0.000000D+00  E= 3.502343D-01

 Vector   14  Occ=0.000000D+00  E= 3.603238D-01

 Vector   15  Occ=0.000000D+00  E= 3.603238D-01

 Vector   16  Occ=0.000000D+00  E= 5.437090D-01

 Vector   17  Occ=0.000000D+00  E= 5.768298D-01

 Vector   18  Occ=0.000000D+00  E= 5.768298D-01

 Vector   19  Occ=0.000000D+00  E= 1.163541D+00

 Vector   20  Occ=0.000000D+00  E= 1.578448D+00

 Vector   21  Occ=0.000000D+00  E= 1.595465D+00

 Vector   22  Occ=0.000000D+00  E= 1.595465D+00

 Vector   23  Occ=0.000000D+00  E= 1.640725D+00

 Vector   24  Occ=0.000000D+00  E= 1.640725D+00

 Vector   25  Occ=0.000000D+00  E= 2.659410D+00

 Vector   26  Occ=0.000000D+00  E= 2.705650D+00

 Vector   27  Occ=0.000000D+00  E= 2.705650D+00

 Vector   28  Occ=0.000000D+00  E= 2.846664D+00

 Vector   29  Occ=0.000000D+00  E= 2.854053D+00

 Vector   30  Occ=0.000000D+00  E= 2.854053D+00

 Vector   31  Occ=0.000000D+00  E= 2.874190D+00

 Vector   32  Occ=0.000000D+00  E= 2.874190D+00

 Vector   33  Occ=0.000000D+00  E= 2.907803D+00

 Vector   34  Occ=0.000000D+00  E= 2.907803D+00

 Vector   35  Occ=0.000000D+00  E= 3.202087D+00

 Vector   36  Occ=0.000000D+00  E= 7.027204D+00

 Vector   37  Occ=0.000000D+00  E= 7.040100D+00

 Vector   38  Occ=0.000000D+00  E= 7.040100D+00

 Vector   39  Occ=0.000000D+00  E= 7.078028D+00

 Vector   40  Occ=0.000000D+00  E= 7.078028D+00

 Vector   41  Occ=0.000000D+00  E= 8.265934D+00

 Vector   42  Occ=0.000000D+00  E= 8.299832D+00

 Vector   43  Occ=0.000000D+00  E= 8.299832D+00

 Vector   44  Occ=0.000000D+00  E= 8.816205D+00

 Vector   45  Occ=0.000000D+00  E= 2.902689D+01

 Total times  cpu:        1.1s     wall:        2.0s
