 Output coordinates in angstroms (scale by  1.889725989 to convert to a.u.)

  No.       Tag          Charge          X              Y              Z
 ---- ---------------- ---------- -------------- -------------- --------------
    1 O                    8.0000     0.00000000     0.00000000     0.00000000

         Total DFT energy =      -75.101430696664

                    DFT Final Alpha Molecular Orbital Analysis
                    ------------------------------------------

 Vector    1  Occ=1.000000D+00  E=-1.903121D+01

 Vector   11  Occ=0.000000D+00  E= 6.946162D-01

 Vector   12  Occ=0.000000D+00  E= 7.009644D-01

 Vector   13  Occ=0.000000D+00  E= 7.159332D-01

 Vector   14  Occ=0.000000D+00  E= 7.159332D-01

 Vector   15  Occ=0.000000D+00  E= 7.262286D-01

 Vector   16  Occ=0.000000D+00  E= 8.990651D-01

 Vector   17  Occ=0.000000D+00  E= 8.990652D-01

 Vector   18  Occ=0.000000D+00  E= 9.373558D-01

 Vector   19  Occ=0.000000D+00  E= 2.416346D+00

 Vector   20  Occ=0.000000D+00  E= 3.143251D+00

 Vector   21  Occ=0.000000D+00  E= 3.143251D+00

 Vector   22  Occ=0.000000D+00  E= 3.202432D+00

 Vector   23  Occ=0.000000D+00  E= 3.202432D+00

 Vector   24  Occ=0.000000D+00  E= 3.224020D+00

 Vector   25  Occ=0.000000D+00  E= 4.437217D+00

 Vector   26  Occ=0.000000D+00  E= 4.437217D+00

 Vector   27  Occ=0.000000D+00  E= 4.506667D+00

 Vector   28  Occ=0.000000D+00  E= 4.857462D+00

 Vector   29  Occ=0.000000D+00  E= 4.857462D+00

 Vector   30  Occ=0.000000D+00  E= 4.900727D+00

 Vector   31  Occ=0.000000D+00  E= 4.900727D+00

 Vector   32  Occ=0.000000D+00  E= 4.928509D+00

 Vector   33  Occ=0.000000D+00  E= 4.928509D+00

 Vector   34  Occ=0.000000D+00  E= 4.938206D+00

 Vector   35  Occ=0.000000D+00  E= 6.761666D+00

 Vector   36  Occ=0.000000D+00  E= 1.396136D+01

 Vector   37  Occ=0.000000D+00  E= 1.396136D+01

 Vector   38  Occ=0.000000D+00  E= 1.402289D+01

 Vector   39  Occ=0.000000D+00  E= 1.402289D+01

 Vector   40  Occ=0.000000D+00  E= 1.404372D+01

 Vector   41  Occ=0.000000D+00  E= 1.618079D+01

 Vector   42  Occ=0.000000D+00  E= 1.618079D+01

 Vector   43  Occ=0.000000D+00  E= 1.624541D+01

 Vector   44  Occ=0.000000D+00  E= 1.846393D+01

 Vector   45  Occ=0.000000D+00  E= 6.100641D+01

 Vector    1  Occ=1.000000D+00  E=-1.897766D+01

 Vector    2  Occ=1.000000D+00  E=-8.048020D-01

 Vector    3  Occ=1.000000D+00  E=-2.904489D-01

 Vector    4  Occ=0.000000D+00  E=-2.155414D-01

 Vector    5  Occ=0.000000D+00  E=-2.155408D-01

 Vector    6  Occ=0.000000D+00  E= 8.278971D-02

 Vector    7  Occ=0.000000D+00  E= 1.487080D-01

 Vector    8  Occ=0.000000D+00  E= 1.659150D-01

 Vector    9  Occ=0.000000D+00  E= 1.659172D-01

 Vector   10  Occ=0.000000D+00  E= 7.463605D-01

 Vector   11  Occ=0.000000D+00  E= 7.477490D-01

 Vector   12  Occ=0.000000D+00  E= 7.477493D-01

 Vector   13  Occ=0.000000D+00  E= 7.498269D-01

 Vector   14  Occ=0.000000D+00  E= 7.619571D-01

 Vector   15  Occ=0.000000D+00  E= 7.619573D-01

 Vector   16  Occ=0.000000D+00  E= 9.639438D-01

 Vector   17  Occ=0.000000D+00  E= 1.002143D+00

 Vector   18  Occ=0.000000D+00  E= 1.002144D+00

 Vector   19  Occ=0.000000D+00  E= 2.496354D+00

 Vector   20  Occ=0.000000D+00  E= 3.313457D+00

 Vector   21  Occ=0.000000D+00  E= 3.313460D+00

 Vector   22  Occ=0.000000D+00  E= 3.321733D+00

 Vector   23  Occ=0.000000D+00  E= 3.325643D+00

 Vector   24  Occ=0.000000D+00  E= 3.325648D+00

 Vector   25  Occ=0.000000D+00  E= 4.608957D+00

 Vector   26  Occ=0.000000D+00  E= 4.608973D+00

 Vector   27  Occ=0.000000D+00  E= 4.623738D+00

 Vector   28  Occ=0.000000D+00  E= 5.003516D+00

 Vector   29  Occ=0.000000D+00  E= 5.003517D+00

 Vector   30  Occ=0.000000D+00  E= 5.005131D+00

 Vector   31  Occ=0.000000D+00  E= 5.005134D+00

 Vector   32  Occ=0.000000D+00  E= 5.034866D+00

 Vector   33  Occ=0.000000D+00  E= 5.034871D+00

 Vector   34  Occ=0.000000D+00  E= 5.038356D+00

 Vector   35  Occ=0.000000D+00  E= 6.880536D+00

 Vector   36  Occ=0.000000D+00  E= 1.427462D+01

 Vector   37  Occ=0.000000D+00  E= 1.427463D+01

 Vector   38  Occ=0.000000D+00  E= 1.430532D+01

 Vector   39  Occ=0.000000D+00  E= 1.430533D+01

 Vector   40  Occ=0.000000D+00  E= 1.434133D+01

 Vector   41  Occ=0.000000D+00  E= 1.631349D+01

 Vector   42  Occ=0.000000D+00  E= 1.631350D+01

 Vector   43  Occ=0.000000D+00  E= 1.635786D+01

 Vector   44  Occ=0.000000D+00  E= 1.868854D+01

 Vector   45  Occ=0.000000D+00  E= 6.114161D+01

 Total times  cpu:        1.0s     wall:        1.7s
