 Output coordinates in angstroms (scale by  1.889725989 to convert to a.u.)

  No.       Tag          Charge          X              Y              Z
 ---- ---------------- ---------- -------------- -------------- --------------
    1 S                   16.0000     0.00000000     0.00000000     0.00000000

         Total DFT energy =     -398.138928737595

                    DFT Final Alpha Molecular Orbital Analysis
                    ------------------------------------------

 Vector    1  Occ=1.000000D+00  E=-8.840907D+01

 Vector   27  Occ=0.000000D+00  E= 9.252134D-01

 Vector   28  Occ=0.000000D+00  E= 1.046112D+00

 Vector   29  Occ=0.000000D+00  E= 1.046112D+00

 Vector   30  Occ=0.000000D+00  E= 1.075049D+00

 Vector   31  Occ=0.000000D+00  E= 1.208438D+00

 Vector   32  Occ=0.000000D+00  E= 1.522846D+00

 Vector   33  Occ=0.000000D+00  E= 1.522846D+00

 Vector   34  Occ=0.000000D+00  E= 1.552462D+00

 Vector   35  Occ=0.000000D+00  E= 1.552462D+00

 Vector   36  Occ=0.000000D+00  E= 1.571678D+00

 Vector   37  Occ=0.000000D+00  E= 1.571678D+00

 Vector   38  Occ=0.000000D+00  E= 1.578194D+00

 Vector   39  Occ=0.000000D+00  E= 2.932268D+00

 Vector   40  Occ=0.000000D+00  E= 2.932268D+00

 Vector   41  Occ=0.000000D+00  E= 2.969570D+00

 Vector   42  Occ=0.000000D+00  E= 3.714132D+00

 Vector   43  Occ=0.000000D+00  E= 4.488336D+00

 Vector   44  Occ=0.000000D+00  E= 4.488336D+00

 Vector   45  Occ=0.000000D+00  E= 4.513990D+00

 Vector   46  Occ=0.000000D+00  E= 4.513990D+00

 Vector   47  Occ=0.000000D+00  E= 4.523364D+00

 Vector   48  Occ=0.000000D+00  E= 1.001314D+01

 Vector   49  Occ=0.000000D+00  E= 1.839757D+01

 Vector   50  Occ=0.000000D+00  E= 1.839757D+01

 Vector   51  Occ=0.000000D+00  E= 1.841868D+01

 Vector   52  Occ=0.000000D+00  E= 2.479225D+01

 Vector   53  Occ=0.000000D+00  E= 2.190975D+02

 Vector    1  Occ=1.000000D+00  E=-8.839850D+01

 Vector    2  Occ=1.000000D+00  E=-7.782817D+00

 Vector    3  Occ=1.000000D+00  E=-5.759847D+00

 Vector    4  Occ=1.000000D+00  E=-5.759847D+00

 Vector    5  Occ=1.000000D+00  E=-5.752249D+00

 Vector    6  Occ=1.000000D+00  E=-5.857480D-01

 Vector    7  Occ=1.000000D+00  E=-2.319085D-01

 Vector    8  Occ=0.000000D+00  E=-2.004771D-01

 Vector    9  Occ=0.000000D+00  E=-2.004771D-01

 Vector   10  Occ=0.000000D+00  E= 2.026705D-02

 Vector   11  Occ=0.000000D+00  E= 5.360729D-02

 Vector   12  Occ=0.000000D+00  E= 6.139225D-02

 Vector   13  Occ=0.000000D+00  E= 6.139400D-02

 Vector   14  Occ=0.000000D+00  E= 2.209708D-01

 Vector   15  Occ=0.000000D+00  E= 2.209708D-01

 Vector   16  Occ=0.000000D+00  E= 2.221276D-01

 Vector   17  Occ=0.000000D+00  E= 2.326332D-01

 Vector   18  Occ=0.000000D+00  E= 2.326332D-01

 Vector   19  Occ=0.000000D+00  E= 3.058574D-01

 Vector   20  Occ=0.000000D+00  E= 3.109821D-01

 Vector   21  Occ=0.000000D+00  E= 3.109836D-01

 Vector   22  Occ=0.000000D+00  E= 3.422275D-01

 Vector   23  Occ=0.000000D+00  E= 9.659680D-01

 Vector   24  Occ=0.000000D+00  E= 9.659680D-01

 Vector   25  Occ=0.000000D+00  E= 9.677905D-01

 Vector   26  Occ=0.000000D+00  E= 9.714195D-01

 Vector   27  Occ=0.000000D+00  E= 9.714195D-01

 Vector   28  Occ=0.000000D+00  E= 1.094093D+00

 Vector   29  Occ=0.000000D+00  E= 1.100662D+00

 Vector   30  Occ=0.000000D+00  E= 1.100663D+00

 Vector   31  Occ=0.000000D+00  E= 1.247243D+00

 Vector   32  Occ=0.000000D+00  E= 1.622028D+00

 Vector   33  Occ=0.000000D+00  E= 1.622028D+00

 Vector   34  Occ=0.000000D+00  E= 1.628803D+00

 Vector   35  Occ=0.000000D+00  E= 1.628803D+00

 Vector   36  Occ=0.000000D+00  E= 1.632014D+00

 Vector   37  Occ=0.000000D+00  E= 1.632016D+00

 Vector   38  Occ=0.000000D+00  E= 1.632016D+00

 Vector   39  Occ=0.000000D+00  E= 2.977057D+00

 Vector   40  Occ=0.000000D+00  E= 2.977057D+00

 Vector   41  Occ=0.000000D+00  E= 3.017597D+00

 Vector   42  Occ=0.000000D+00  E= 3.768312D+00

 Vector   43  Occ=0.000000D+00  E= 4.524110D+00

 Vector   44  Occ=0.000000D+00  E= 4.524110D+00

 Vector   45  Occ=0.000000D+00  E= 4.542389D+00

 Vector   46  Occ=0.000000D+00  E= 4.542389D+00

 Vector   47  Occ=0.000000D+00  E= 4.551363D+00

 Vector   48  Occ=0.000000D+00  E= 1.007462D+01

 Vector   49  Occ=0.000000D+00  E= 1.842618D+01

 Vector   50  Occ=0.000000D+00  E= 1.842618D+01

 Vector   51  Occ=0.000000D+00  E= 1.843819D+01

 Vector   52  Occ=0.000000D+00  E= 2.483741D+01

 Vector   53  Occ=0.000000D+00  E= 2.191120D+02

 Total times  cpu:        1.2s     wall:        1.9s
