 Output coordinates in angstroms (scale by  1.889725989 to convert to a.u.)

  No.       Tag          Charge          X              Y              Z
 ---- ---------------- ---------- -------------- -------------- --------------
    1 C                    6.0000     0.00000000     0.00000000     0.00000000

         Total DFT energy =      -37.443049564902

                    DFT Final Alpha Molecular Orbital Analysis
                    ------------------------------------------

 Vector    1  Occ=1.000000D+00  E=-1.068575D+01

 Vector   11  Occ=0.000000D+00  E= 3.287727D-02

 Vector   12  Occ=0.000000D+00  E= 3.688662D-02

 Vector   13  Occ=0.000000D+00  E= 4.015020D-02

 Vector   14  Occ=0.000000D+00  E= 4.015022D-02

 Vector   15  Occ=0.000000D+00  E= 9.150818D-02

 Vector   16  Occ=0.000000D+00  E= 1.966880D-01

 Vector   17  Occ=0.000000D+00  E= 2.117783D-01

 Vector   18  Occ=0.000000D+00  E= 2.117856D-01

 Vector   19  Occ=0.000000D+00  E= 8.005497D-01

 Vector   20  Occ=0.000000D+00  E= 1.092561D+00

 Vector   21  Occ=0.000000D+00  E= 1.092561D+00

 Vector   22  Occ=0.000000D+00  E= 1.100487D+00

 Vector   23  Occ=0.000000D+00  E= 1.102503D+00

 Vector   24  Occ=0.000000D+00  E= 1.102503D+00

 Vector   25  Occ=0.000000D+00  E= 2.134755D+00

 Vector   26  Occ=0.000000D+00  E= 2.134756D+00

 Vector   27  Occ=0.000000D+00  E= 2.140757D+00

 Vector   28  Occ=0.000000D+00  E= 2.319837D+00

 Vector   29  Occ=0.000000D+00  E= 2.319838D+00

 Vector   30  Occ=0.000000D+00  E= 2.322387D+00

 Vector   31  Occ=0.000000D+00  E= 2.322389D+00

 Vector   32  Occ=0.000000D+00  E= 2.345477D+00

 Vector   33  Occ=0.000000D+00  E= 2.345478D+00

 Vector   34  Occ=0.000000D+00  E= 2.349826D+00

 Vector   35  Occ=0.000000D+00  E= 2.709767D+00

 Vector   36  Occ=0.000000D+00  E= 6.394800D+00

 Vector   37  Occ=0.000000D+00  E= 6.394808D+00

 Vector   38  Occ=0.000000D+00  E= 6.412345D+00

 Vector   39  Occ=0.000000D+00  E= 6.412350D+00

 Vector   40  Occ=0.000000D+00  E= 6.433019D+00

 Vector   41  Occ=0.000000D+00  E= 7.766857D+00

 Vector   42  Occ=0.000000D+00  E= 7.766857D+00

 Vector   43  Occ=0.000000D+00  E= 7.810752D+00

 Vector   44  Occ=0.000000D+00  E= 8.244661D+00

 Vector   45  Occ=0.000000D+00  E= 2.840436D+01

 Vector    1  Occ=1.000000D+00  E=-1.066656D+01

 Vector    2  Occ=1.000000D+00  E=-9.138802D-01

 Vector    3  Occ=0.000000D+00  E=-5.960525D-01

 Vector    4  Occ=0.000000D+00  E=-5.960525D-01

 Vector    5  Occ=0.000000D+00  E=-5.214568D-01

 Vector    6  Occ=0.000000D+00  E=-1.688248D-01

 Vector    7  Occ=0.000000D+00  E=-1.139500D-01

 Vector    8  Occ=0.000000D+00  E=-1.139500D-01

 Vector    9  Occ=0.000000D+00  E=-1.018682D-01

 Vector   10  Occ=0.000000D+00  E= 4.621744D-02

 Vector   11  Occ=0.000000D+00  E= 4.621748D-02

 Vector   12  Occ=0.000000D+00  E= 6.290816D-02

 Vector   13  Occ=0.000000D+00  E= 6.290824D-02

 Vector   14  Occ=0.000000D+00  E= 6.682959D-02

 Vector   15  Occ=0.000000D+00  E= 1.044615D-01

 Vector   16  Occ=0.000000D+00  E= 2.220034D-01

 Vector   17  Occ=0.000000D+00  E= 2.220034D-01

 Vector   18  Occ=0.000000D+00  E= 2.518831D-01

 Vector   19  Occ=0.000000D+00  E= 8.326622D-01

 Vector   20  Occ=0.000000D+00  E= 1.122929D+00

 Vector   21  Occ=0.000000D+00  E= 1.122929D+00

 Vector   22  Occ=0.000000D+00  E= 1.173970D+00

 Vector   23  Occ=0.000000D+00  E= 1.173970D+00

 Vector   24  Occ=0.000000D+00  E= 1.188987D+00

 Vector   25  Occ=0.000000D+00  E= 2.183149D+00

 Vector   26  Occ=0.000000D+00  E= 2.183149D+00

 Vector   27  Occ=0.000000D+00  E= 2.230296D+00

 Vector   28  Occ=0.000000D+00  E= 2.358753D+00

 Vector   29  Occ=0.000000D+00  E= 2.358753D+00

 Vector   30  Occ=0.000000D+00  E= 2.396903D+00

 Vector   31  Occ=0.000000D+00  E= 2.396903D+00

 Vector   32  Occ=0.000000D+00  E= 2.417844D+00

 Vector   33  Occ=0.000000D+00  E= 2.417844D+00

 Vector   34  Occ=0.000000D+00  E= 2.425147D+00

 Vector   35  Occ=0.000000D+00  E= 2.762736D+00

 Vector   36  Occ=0.000000D+00  E= 6.473988D+00

 Vector   37  Occ=0.000000D+00  E= 6.473988D+00

 Vector   38  Occ=0.000000D+00  E= 6.515335D+00

 Vector   39  Occ=0.000000D+00  E= 6.515335D+00

 Vector   40  Occ=0.000000D+00  E= 6.527612D+00

 Vector   41  Occ=0.000000D+00  E= 7.807013D+00

 Vector   42  Occ=0.000000D+00  E= 7.807013D+00

 Vector   43  Occ=0.000000D+00  E= 7.845309D+00

 Vector   44  Occ=0.000000D+00  E= 8.330722D+00

 Vector   45  Occ=0.000000D+00  E= 2.845034D+01

 Total times  cpu:        1.7s     wall:        2.7s
