 Output coordinates in angstroms (scale by  1.889725989 to convert to a.u.)

  No.       Tag          Charge          X              Y              Z
 ---- ---------------- ---------- -------------- -------------- --------------
    1 Cl                  17.0000     0.00000000     0.00000000     0.00000000

         Total DFT energy =     -459.696905711023

                    DFT Final Alpha Molecular Orbital Analysis
                    ------------------------------------------

 Vector    1  Occ=1.000000D+00  E=-1.015432D+02

 Vector   27  Occ=0.000000D+00  E= 6.366119D-01

 Vector   28  Occ=0.000000D+00  E= 1.049365D+00

 Vector   29  Occ=0.000000D+00  E= 1.075438D+00

 Vector   30  Occ=0.000000D+00  E= 1.075438D+00

 Vector   31  Occ=0.000000D+00  E= 1.107675D+00

 Vector   32  Occ=0.000000D+00  E= 1.521039D+00

 Vector   33  Occ=0.000000D+00  E= 1.521039D+00

 Vector   34  Occ=0.000000D+00  E= 1.555820D+00

 Vector   35  Occ=0.000000D+00  E= 1.555820D+00

 Vector   36  Occ=0.000000D+00  E= 1.578282D+00

 Vector   37  Occ=0.000000D+00  E= 1.578282D+00

 Vector   38  Occ=0.000000D+00  E= 1.585873D+00

 Vector   39  Occ=0.000000D+00  E= 3.447267D+00

 Vector   40  Occ=0.000000D+00  E= 3.447267D+00

 Vector   41  Occ=0.000000D+00  E= 3.491821D+00

 Vector   42  Occ=0.000000D+00  E= 3.697048D+00

 Vector   43  Occ=0.000000D+00  E= 4.549102D+00

 Vector   44  Occ=0.000000D+00  E= 4.549102D+00

 Vector   45  Occ=0.000000D+00  E= 4.581830D+00

 Vector   46  Occ=0.000000D+00  E= 4.581830D+00

 Vector   47  Occ=0.000000D+00  E= 4.593779D+00

 Vector   48  Occ=0.000000D+00  E= 1.056923D+01

 Vector   49  Occ=0.000000D+00  E= 2.746691D+01

 Vector   50  Occ=0.000000D+00  E= 3.136365D+01

 Vector   51  Occ=0.000000D+00  E= 3.136365D+01

 Vector   52  Occ=0.000000D+00  E= 3.140101D+01

 Vector   53  Occ=0.000000D+00  E= 2.471685D+02

 Vector    1  Occ=1.000000D+00  E=-1.015294D+02

 Vector    2  Occ=1.000000D+00  E=-9.755827D+00

 Vector    3  Occ=1.000000D+00  E=-7.532256D+00

 Vector    4  Occ=1.000000D+00  E=-7.532256D+00

 Vector    5  Occ=1.000000D+00  E=-7.521626D+00

 Vector    6  Occ=1.000000D+00  E=-1.123139D+00

 Vector    7  Occ=1.000000D+00  E=-6.834200D-01

 Vector    8  Occ=0.000000D+00  E=-6.463603D-01

 Vector    9  Occ=0.000000D+00  E=-6.463603D-01

 Vector   10  Occ=0.000000D+00  E=-1.865295D-01

 Vector   11  Occ=0.000000D+00  E=-1.157759D-01

 Vector   12  Occ=0.000000D+00  E=-1.085822D-01

 Vector   13  Occ=0.000000D+00  E=-1.085818D-01

 Vector   14  Occ=0.000000D+00  E=-7.651200D-02

 Vector   15  Occ=0.000000D+00  E=-7.651199D-02

 Vector   16  Occ=0.000000D+00  E=-7.351012D-02

 Vector   17  Occ=0.000000D+00  E=-6.265485D-02

 Vector   18  Occ=0.000000D+00  E=-6.265483D-02

 Vector   19  Occ=0.000000D+00  E= 1.494564D-01

 Vector   20  Occ=0.000000D+00  E= 1.658200D-01

 Vector   21  Occ=0.000000D+00  E= 1.696579D-01

 Vector   22  Occ=0.000000D+00  E= 1.696583D-01

 Vector   23  Occ=0.000000D+00  E= 6.766327D-01

 Vector   24  Occ=0.000000D+00  E= 6.766327D-01

 Vector   25  Occ=0.000000D+00  E= 6.802545D-01

 Vector   26  Occ=0.000000D+00  E= 6.843006D-01

 Vector   27  Occ=0.000000D+00  E= 6.843006D-01

 Vector   28  Occ=0.000000D+00  E= 1.094025D+00

 Vector   29  Occ=0.000000D+00  E= 1.130227D+00

 Vector   30  Occ=0.000000D+00  E= 1.137159D+00

 Vector   31  Occ=0.000000D+00  E= 1.137159D+00

 Vector   32  Occ=0.000000D+00  E= 1.638474D+00

 Vector   33  Occ=0.000000D+00  E= 1.638474D+00

 Vector   34  Occ=0.000000D+00  E= 1.648534D+00

 Vector   35  Occ=0.000000D+00  E= 1.648534D+00

 Vector   36  Occ=0.000000D+00  E= 1.648708D+00

 Vector   37  Occ=0.000000D+00  E= 1.648851D+00

 Vector   38  Occ=0.000000D+00  E= 1.648851D+00

 Vector   39  Occ=0.000000D+00  E= 3.500436D+00

 Vector   40  Occ=0.000000D+00  E= 3.500436D+00

 Vector   41  Occ=0.000000D+00  E= 3.544446D+00

 Vector   42  Occ=0.000000D+00  E= 3.756071D+00

 Vector   43  Occ=0.000000D+00  E= 4.593893D+00

 Vector   44  Occ=0.000000D+00  E= 4.593893D+00

 Vector   45  Occ=0.000000D+00  E= 4.617196D+00

 Vector   46  Occ=0.000000D+00  E= 4.617196D+00

 Vector   47  Occ=0.000000D+00  E= 4.631202D+00

 Vector   48  Occ=0.000000D+00  E= 1.063230D+01

 Vector   49  Occ=0.000000D+00  E= 2.752773D+01

 Vector   50  Occ=0.000000D+00  E= 3.140656D+01

 Vector   51  Occ=0.000000D+00  E= 3.140656D+01

 Vector   52  Occ=0.000000D+00  E= 3.144410D+01

 Vector   53  Occ=0.000000D+00  E= 2.471875D+02

 Total times  cpu:        4.0s     wall:        5.3s
