 Output coordinates in angstroms (scale by  1.889725989 to convert to a.u.)

  No.       Tag          Charge          X              Y              Z
 ---- ---------------- ---------- -------------- -------------- --------------
    1 Cl                  17.0000     0.00000000     0.00000000     0.00000000

         Total DFT energy =     -460.172948976271

                    DFT Final Alpha Molecular Orbital Analysis
                    ------------------------------------------

 Vector    1  Occ=1.000000D+00  E=-1.010621D+02

 Vector   27  Occ=0.000000D+00  E= 1.032995D+00

 Vector   28  Occ=0.000000D+00  E= 1.380596D+00

 Vector   29  Occ=0.000000D+00  E= 1.402242D+00

 Vector   30  Occ=0.000000D+00  E= 1.436657D+00

 Vector   31  Occ=0.000000D+00  E= 1.436657D+00

 Vector   32  Occ=0.000000D+00  E= 1.956324D+00

 Vector   33  Occ=0.000000D+00  E= 1.962776D+00

 Vector   34  Occ=0.000000D+00  E= 1.962776D+00

 Vector   35  Occ=0.000000D+00  E= 1.982986D+00

 Vector   36  Occ=0.000000D+00  E= 1.982986D+00

 Vector   37  Occ=0.000000D+00  E= 2.018334D+00

 Vector   38  Occ=0.000000D+00  E= 2.018334D+00

 Vector   39  Occ=0.000000D+00  E= 3.842857D+00

 Vector   40  Occ=0.000000D+00  E= 3.886613D+00

 Vector   41  Occ=0.000000D+00  E= 3.886613D+00

 Vector   42  Occ=0.000000D+00  E= 4.103778D+00

 Vector   43  Occ=0.000000D+00  E= 5.003946D+00

 Vector   44  Occ=0.000000D+00  E= 5.013178D+00

 Vector   45  Occ=0.000000D+00  E= 5.013178D+00

 Vector   46  Occ=0.000000D+00  E= 5.043400D+00

 Vector   47  Occ=0.000000D+00  E= 5.043400D+00

 Vector   48  Occ=0.000000D+00  E= 1.102147D+01

 Vector   49  Occ=0.000000D+00  E= 2.793509D+01

 Vector   50  Occ=0.000000D+00  E= 3.181296D+01

 Vector   51  Occ=0.000000D+00  E= 3.184768D+01

 Vector   52  Occ=0.000000D+00  E= 3.184768D+01

 Vector   53  Occ=0.000000D+00  E= 2.476472D+02

 Vector    1  Occ=1.000000D+00  E=-1.010559D+02

 Vector    2  Occ=1.000000D+00  E=-9.291496D+00

 Vector    3  Occ=1.000000D+00  E=-7.071016D+00

 Vector    4  Occ=1.000000D+00  E=-7.061979D+00

 Vector    5  Occ=1.000000D+00  E=-7.061979D+00

 Vector    6  Occ=1.000000D+00  E=-7.411579D-01

 Vector    7  Occ=1.000000D+00  E=-3.036848D-01

 Vector    8  Occ=1.000000D+00  E=-3.036848D-01

 Vector    9  Occ=0.000000D+00  E=-2.776406D-01

 Vector   10  Occ=0.000000D+00  E= 2.022217D-02

 Vector   11  Occ=0.000000D+00  E= 6.668043D-02

 Vector   12  Occ=0.000000D+00  E= 6.668044D-02

 Vector   13  Occ=0.000000D+00  E= 7.057409D-02

 Vector   14  Occ=0.000000D+00  E= 2.429354D-01

 Vector   15  Occ=0.000000D+00  E= 2.429354D-01

 Vector   16  Occ=0.000000D+00  E= 2.478404D-01

 Vector   17  Occ=0.000000D+00  E= 2.478404D-01

 Vector   18  Occ=0.000000D+00  E= 2.554909D-01

 Vector   19  Occ=0.000000D+00  E= 3.860743D-01

 Vector   20  Occ=0.000000D+00  E= 4.057535D-01

 Vector   21  Occ=0.000000D+00  E= 4.057535D-01

 Vector   22  Occ=0.000000D+00  E= 4.077071D-01

 Vector   23  Occ=0.000000D+00  E= 1.041388D+00

 Vector   24  Occ=0.000000D+00  E= 1.041388D+00

 Vector   25  Occ=0.000000D+00  E= 1.043684D+00

 Vector   26  Occ=0.000000D+00  E= 1.043684D+00

 Vector   27  Occ=0.000000D+00  E= 1.049446D+00

 Vector   28  Occ=0.000000D+00  E= 1.400643D+00

 Vector   29  Occ=0.000000D+00  E= 1.447323D+00

 Vector   30  Occ=0.000000D+00  E= 1.447323D+00

 Vector   31  Occ=0.000000D+00  E= 1.451493D+00

 Vector   32  Occ=0.000000D+00  E= 2.022457D+00

 Vector   33  Occ=0.000000D+00  E= 2.022457D+00

 Vector   34  Occ=0.000000D+00  E= 2.025474D+00

 Vector   35  Occ=0.000000D+00  E= 2.025474D+00

 Vector   36  Occ=0.000000D+00  E= 2.029821D+00

 Vector   37  Occ=0.000000D+00  E= 2.029821D+00

 Vector   38  Occ=0.000000D+00  E= 2.030946D+00

 Vector   39  Occ=0.000000D+00  E= 3.880114D+00

 Vector   40  Occ=0.000000D+00  E= 3.909174D+00

 Vector   41  Occ=0.000000D+00  E= 3.909174D+00

 Vector   42  Occ=0.000000D+00  E= 4.135910D+00

 Vector   43  Occ=0.000000D+00  E= 5.032913D+00

 Vector   44  Occ=0.000000D+00  E= 5.035762D+00

 Vector   45  Occ=0.000000D+00  E= 5.035762D+00

 Vector   46  Occ=0.000000D+00  E= 5.054586D+00

 Vector   47  Occ=0.000000D+00  E= 5.054586D+00

 Vector   48  Occ=0.000000D+00  E= 1.105429D+01

 Vector   49  Occ=0.000000D+00  E= 2.796487D+01

 Vector   50  Occ=0.000000D+00  E= 3.183926D+01

 Vector   51  Occ=0.000000D+00  E= 3.186627D+01

 Vector   52  Occ=0.000000D+00  E= 3.186627D+01

 Vector   53  Occ=0.000000D+00  E= 2.476560D+02

 Total times  cpu:        1.7s     wall:        3.1s
