 Output coordinates in angstroms (scale by  1.889725989 to convert to a.u.)

  No.       Tag          Charge          X              Y              Z
 ---- ---------------- ---------- -------------- -------------- --------------
    1 Cl                  17.0000     0.00000000     0.00000000    -0.95047000
    2 Cl                  17.0000     0.00000000     0.00000000     0.95047000

         Total DFT energy =     -920.031016707035

                    DFT Final Alpha Molecular Orbital Analysis
                    ------------------------------------------

 Vector    1  Occ=1.000000D+00  E=-1.014137D+02

 Vector   27  Occ=0.000000D+00  E=-8.353681D-02

 Vector   28  Occ=0.000000D+00  E=-6.136973D-02

 Vector   29  Occ=0.000000D+00  E=-6.000835D-02

 Vector   30  Occ=0.000000D+00  E=-3.027673D-03

 Vector   31  Occ=0.000000D+00  E= 4.338872D-02

 Vector   32  Occ=0.000000D+00  E= 4.423084D-02

 Vector   33  Occ=0.000000D+00  E= 4.484297D-02

 Vector   34  Occ=0.000000D+00  E= 1.518858D-01

 Vector   35  Occ=0.000000D+00  E= 1.713954D-01

 Vector   36  Occ=0.000000D+00  E= 1.714351D-01

 Vector   37  Occ=0.000000D+00  E= 1.730445D-01

 Vector   38  Occ=0.000000D+00  E= 1.822135D-01

 Vector   39  Occ=0.000000D+00  E= 1.844673D-01

 Vector   40  Occ=0.000000D+00  E= 2.453673D-01

 Vector   41  Occ=0.000000D+00  E= 2.828257D-01

 Vector   42  Occ=0.000000D+00  E= 2.828706D-01

 Vector   43  Occ=0.000000D+00  E= 2.892407D-01

 Vector   44  Occ=0.000000D+00  E= 5.586802D-01

 Vector   45  Occ=0.000000D+00  E= 7.235430D-01

 Vector   46  Occ=0.000000D+00  E= 7.257142D-01

 Vector   47  Occ=0.000000D+00  E= 7.266738D-01

 Vector   48  Occ=0.000000D+00  E= 7.319487D-01

 Vector   49  Occ=0.000000D+00  E= 7.342356D-01

 Vector   50  Occ=0.000000D+00  E= 7.801249D-01

 Vector   51  Occ=0.000000D+00  E= 7.810192D-01

 Vector   52  Occ=0.000000D+00  E= 8.284957D-01

 Vector   53  Occ=0.000000D+00  E= 8.291476D-01

 Vector   54  Occ=0.000000D+00  E= 8.377768D-01

 Vector   55  Occ=0.000000D+00  E= 1.129761D+00

 Vector   56  Occ=0.000000D+00  E= 1.147351D+00

 Vector   57  Occ=0.000000D+00  E= 1.149273D+00

 Vector   58  Occ=0.000000D+00  E= 1.193252D+00

 Vector   59  Occ=0.000000D+00  E= 1.228217D+00

 Vector   60  Occ=0.000000D+00  E= 1.228995D+00

 Vector   61  Occ=0.000000D+00  E= 1.386948D+00

 Vector   62  Occ=0.000000D+00  E= 1.454915D+00

 Vector   63  Occ=0.000000D+00  E= 1.515397D+00

 Vector   64  Occ=0.000000D+00  E= 1.516081D+00

 Vector   65  Occ=0.000000D+00  E= 1.517143D+00

 Vector   66  Occ=0.000000D+00  E= 1.520938D+00

 Vector   67  Occ=0.000000D+00  E= 1.679699D+00

 Vector   68  Occ=0.000000D+00  E= 1.680009D+00

 Vector   69  Occ=0.000000D+00  E= 1.740479D+00

 Vector   70  Occ=0.000000D+00  E= 1.740806D+00

 Vector   71  Occ=0.000000D+00  E= 1.905632D+00

 Vector   72  Occ=0.000000D+00  E= 1.906881D+00

 Vector   73  Occ=0.000000D+00  E= 2.001664D+00

 Vector   74  Occ=0.000000D+00  E= 2.318263D+00

 Vector   75  Occ=0.000000D+00  E= 2.324256D+00

 Vector   76  Occ=0.000000D+00  E= 2.416253D+00

 Vector   77  Occ=0.000000D+00  E= 3.426684D+00

 Vector   78  Occ=0.000000D+00  E= 3.552088D+00

 Vector   79  Occ=0.000000D+00  E= 3.572024D+00

 Vector   80  Occ=0.000000D+00  E= 3.616229D+00

 Vector   81  Occ=0.000000D+00  E= 3.634858D+00

 Vector   82  Occ=0.000000D+00  E= 3.792914D+00

 Vector   83  Occ=0.000000D+00  E= 3.869467D+00

 Vector   84  Occ=0.000000D+00  E= 4.113566D+00

 Vector   85  Occ=0.000000D+00  E= 4.664794D+00

 Vector   86  Occ=0.000000D+00  E= 4.673370D+00

 Vector   87  Occ=0.000000D+00  E= 4.677394D+00

 Vector   88  Occ=0.000000D+00  E= 4.700783D+00

 Vector   89  Occ=0.000000D+00  E= 4.703699D+00

 Vector   90  Occ=0.000000D+00  E= 4.735658D+00

 Vector   91  Occ=0.000000D+00  E= 4.736261D+00

 Vector   92  Occ=0.000000D+00  E= 4.843901D+00

 Vector   93  Occ=0.000000D+00  E= 4.856407D+00

 Vector   94  Occ=0.000000D+00  E= 5.614146D+00

 Vector   95  Occ=0.000000D+00  E= 1.070165D+01

 Vector   96  Occ=0.000000D+00  E= 1.094429D+01

 Vector   97  Occ=0.000000D+00  E= 2.763438D+01

 Vector   98  Occ=0.000000D+00  E= 2.778992D+01

 Vector   99  Occ=0.000000D+00  E= 3.144693D+01

 Vector  100  Occ=0.000000D+00  E= 3.146364D+01

 Vector  101  Occ=0.000000D+00  E= 3.163205D+01

 Vector  102  Occ=0.000000D+00  E= 3.164862D+01

 Vector  103  Occ=0.000000D+00  E= 3.165531D+01

 Vector  104  Occ=0.000000D+00  E= 3.235527D+01

 Vector  105  Occ=0.000000D+00  E= 2.473207D+02

 Vector  106  Occ=0.000000D+00  E= 2.475719D+02

     Multipole analysis of the density
     ---------------------------------

     L   x y z        total         alpha         beta         nuclear
     -   - - -        -----         -----         ----         -------
     0   0 0 0      1.000000    -17.000000    -16.000000     34.000000

     1   1 0 0      0.000000      0.000000      0.000000      0.000000
     1   0 1 0      0.000000      0.000000      0.000000      0.000000
     1   0 0 1     -0.000000     -0.000000      0.000000      0.000000

     2   2 0 0    -15.469947     -8.679431     -6.790516      0.000000
     2   1 1 0      0.437366     -0.046144      0.483510      0.000000
     2   1 0 1     -0.000000     -0.000000      0.000000      0.000000
     2   0 2 0    -16.404784     -8.580801     -7.823983      0.000000
     2   0 1 1     -0.000000     -0.000000     -0.000000      0.000000

 Total times  cpu:        5.9s     wall:        7.3s
