 Output coordinates in angstroms (scale by  1.889725989 to convert to a.u.)

  No.       Tag          Charge          X              Y              Z
 ---- ---------------- ---------- -------------- -------------- --------------
    1 Cl                  17.0000     0.00000000     0.00000000    -1.00391500
    2 Cl                  17.0000     0.00000000     0.00000000     1.00391500

         Total DFT energy =     -920.442586940973

                       DFT Final Molecular Orbital Analysis
                       ------------------------------------

 Vector    1  Occ=2.000000D+00  E=-1.010669D+02

 Vector   27  Occ=0.000000D+00  E= 1.748891D-01

 Vector   28  Occ=0.000000D+00  E= 1.748891D-01

 Vector   29  Occ=0.000000D+00  E= 1.851703D-01

 Vector   30  Occ=0.000000D+00  E= 1.851705D-01

 Vector   31  Occ=0.000000D+00  E= 2.637677D-01

 Vector   32  Occ=0.000000D+00  E= 2.966350D-01

 Vector   33  Occ=0.000000D+00  E= 2.966353D-01

 Vector   34  Occ=0.000000D+00  E= 3.423309D-01

 Vector   35  Occ=0.000000D+00  E= 3.719345D-01

 Vector   36  Occ=0.000000D+00  E= 3.890343D-01

 Vector   37  Occ=0.000000D+00  E= 3.890343D-01

 Vector   38  Occ=0.000000D+00  E= 3.933100D-01

 Vector   39  Occ=0.000000D+00  E= 3.933100D-01

 Vector   40  Occ=0.000000D+00  E= 4.527602D-01

 Vector   41  Occ=0.000000D+00  E= 5.061542D-01

 Vector   42  Occ=0.000000D+00  E= 5.061542D-01

 Vector   43  Occ=0.000000D+00  E= 5.196729D-01

 Vector   44  Occ=0.000000D+00  E= 7.627456D-01

 Vector   45  Occ=0.000000D+00  E= 1.015176D+00

 Vector   46  Occ=0.000000D+00  E= 1.015176D+00

 Vector   47  Occ=0.000000D+00  E= 1.023378D+00

 Vector   48  Occ=0.000000D+00  E= 1.041482D+00

 Vector   49  Occ=0.000000D+00  E= 1.041482D+00

 Vector   50  Occ=0.000000D+00  E= 1.062145D+00

 Vector   51  Occ=0.000000D+00  E= 1.062145D+00

 Vector   52  Occ=0.000000D+00  E= 1.095365D+00

 Vector   53  Occ=0.000000D+00  E= 1.098611D+00

 Vector   54  Occ=0.000000D+00  E= 1.098611D+00

 Vector   55  Occ=0.000000D+00  E= 1.382738D+00

 Vector   56  Occ=0.000000D+00  E= 1.402822D+00

 Vector   57  Occ=0.000000D+00  E= 1.402822D+00

 Vector   58  Occ=0.000000D+00  E= 1.469549D+00

 Vector   59  Occ=0.000000D+00  E= 1.483198D+00

 Vector   60  Occ=0.000000D+00  E= 1.483198D+00

 Vector   61  Occ=0.000000D+00  E= 1.593968D+00

 Vector   62  Occ=0.000000D+00  E= 1.697848D+00

 Vector   63  Occ=0.000000D+00  E= 1.800112D+00

 Vector   64  Occ=0.000000D+00  E= 1.800112D+00

 Vector   65  Occ=0.000000D+00  E= 1.857339D+00

 Vector   66  Occ=0.000000D+00  E= 1.857339D+00

 Vector   67  Occ=0.000000D+00  E= 1.992471D+00

 Vector   68  Occ=0.000000D+00  E= 1.992471D+00

 Vector   69  Occ=0.000000D+00  E= 2.032552D+00

 Vector   70  Occ=0.000000D+00  E= 2.032552D+00

 Vector   71  Occ=0.000000D+00  E= 2.153984D+00

 Vector   72  Occ=0.000000D+00  E= 2.153984D+00

 Vector   73  Occ=0.000000D+00  E= 2.160681D+00

 Vector   74  Occ=0.000000D+00  E= 2.529743D+00

 Vector   75  Occ=0.000000D+00  E= 2.529743D+00

 Vector   76  Occ=0.000000D+00  E= 2.728481D+00

 Vector   77  Occ=0.000000D+00  E= 3.760998D+00

 Vector   78  Occ=0.000000D+00  E= 3.875461D+00

 Vector   79  Occ=0.000000D+00  E= 3.875461D+00

 Vector   80  Occ=0.000000D+00  E= 3.916489D+00

 Vector   81  Occ=0.000000D+00  E= 3.916489D+00

 Vector   82  Occ=0.000000D+00  E= 4.101779D+00

 Vector   83  Occ=0.000000D+00  E= 4.104100D+00

 Vector   84  Occ=0.000000D+00  E= 4.342826D+00

 Vector   85  Occ=0.000000D+00  E= 5.001411D+00

 Vector   86  Occ=0.000000D+00  E= 5.017637D+00

 Vector   87  Occ=0.000000D+00  E= 5.017637D+00

 Vector   88  Occ=0.000000D+00  E= 5.030959D+00

 Vector   89  Occ=0.000000D+00  E= 5.030959D+00

 Vector   90  Occ=0.000000D+00  E= 5.059081D+00

 Vector   91  Occ=0.000000D+00  E= 5.059082D+00

 Vector   92  Occ=0.000000D+00  E= 5.117175D+00

 Vector   93  Occ=0.000000D+00  E= 5.117175D+00

 Vector   94  Occ=0.000000D+00  E= 5.636439D+00

 Vector   95  Occ=0.000000D+00  E= 1.098605D+01

 Vector   96  Occ=0.000000D+00  E= 1.125097D+01

 Vector   97  Occ=0.000000D+00  E= 2.792242D+01

 Vector   98  Occ=0.000000D+00  E= 2.811784D+01

 Vector   99  Occ=0.000000D+00  E= 3.169438D+01

 Vector  100  Occ=0.000000D+00  E= 3.180289D+01

 Vector  101  Occ=0.000000D+00  E= 3.180289D+01

 Vector  102  Occ=0.000000D+00  E= 3.195143D+01

 Vector  103  Occ=0.000000D+00  E= 3.195143D+01

 Vector  104  Occ=0.000000D+00  E= 3.266002D+01

 Vector  105  Occ=0.000000D+00  E= 2.476235D+02

 Vector  106  Occ=0.000000D+00  E= 2.478991D+02

     Multipole analysis of the density
     ---------------------------------

     L   x y z        total         alpha         beta         nuclear
     -   - - -        -----         -----         ----         -------
     0   0 0 0     -0.000000    -17.000000    -17.000000     34.000000

     1   1 0 0     -0.000000     -0.000000     -0.000000      0.000000
     1   0 1 0     -0.000000     -0.000000     -0.000000      0.000000
     1   0 0 1     -0.000000     -0.000000     -0.000000      0.000000

     2   2 0 0    -18.878167     -9.439083     -9.439083      0.000000
     2   1 1 0     -0.000000     -0.000000     -0.000000      0.000000
     2   1 0 1     -0.000000     -0.000000     -0.000000      0.000000
     2   0 2 0    -18.878167     -9.439083     -9.439083      0.000000
     2   0 1 1      0.000000      0.000000      0.000000      0.000000

 Total times  cpu:        3.9s     wall:        5.2s
