 Output coordinates in angstroms (scale by  1.889725989 to convert to a.u.)

  No.       Tag          Charge          X              Y              Z
 ---- ---------------- ---------- -------------- -------------- --------------
    1 O                    8.0000     0.00000000     0.00000000     0.00000000

         Total DFT energy =      -74.586082588761

                    DFT Final Alpha Molecular Orbital Analysis
                    ------------------------------------------

 Vector    1  Occ=1.000000D+00  E=-1.972119D+01

 Vector   11  Occ=0.000000D+00  E= 3.046937D-01

 Vector   12  Occ=0.000000D+00  E= 3.046937D-01

 Vector   13  Occ=0.000000D+00  E= 3.046937D-01

 Vector   14  Occ=0.000000D+00  E= 3.046937D-01

 Vector   15  Occ=0.000000D+00  E= 3.652578D-01

 Vector   16  Occ=0.000000D+00  E= 5.050565D-01

 Vector   17  Occ=0.000000D+00  E= 5.050565D-01

 Vector   18  Occ=0.000000D+00  E= 5.050565D-01

 Vector   19  Occ=0.000000D+00  E= 1.960198D+00

 Vector   20  Occ=0.000000D+00  E= 2.596566D+00

 Vector   21  Occ=0.000000D+00  E= 2.596566D+00

 Vector   22  Occ=0.000000D+00  E= 2.596566D+00

 Vector   23  Occ=0.000000D+00  E= 2.596566D+00

 Vector   24  Occ=0.000000D+00  E= 2.596566D+00

 Vector   25  Occ=0.000000D+00  E= 3.856007D+00

 Vector   26  Occ=0.000000D+00  E= 3.856007D+00

 Vector   27  Occ=0.000000D+00  E= 3.856007D+00

 Vector   28  Occ=0.000000D+00  E= 4.311301D+00

 Vector   29  Occ=0.000000D+00  E= 4.311301D+00

 Vector   30  Occ=0.000000D+00  E= 4.311301D+00

 Vector   31  Occ=0.000000D+00  E= 4.311301D+00

 Vector   32  Occ=0.000000D+00  E= 4.311301D+00

 Vector   33  Occ=0.000000D+00  E= 4.311301D+00

 Vector   34  Occ=0.000000D+00  E= 4.311301D+00

 Vector   35  Occ=0.000000D+00  E= 6.193148D+00

 Vector   36  Occ=0.000000D+00  E= 1.331702D+01

 Vector   37  Occ=0.000000D+00  E= 1.331702D+01

 Vector   38  Occ=0.000000D+00  E= 1.331702D+01

 Vector   39  Occ=0.000000D+00  E= 1.331702D+01

 Vector   40  Occ=0.000000D+00  E= 1.331702D+01

 Vector   41  Occ=0.000000D+00  E= 1.555684D+01

 Vector   42  Occ=0.000000D+00  E= 1.555684D+01

 Vector   43  Occ=0.000000D+00  E= 1.555684D+01

 Vector   44  Occ=0.000000D+00  E= 1.784590D+01

 Vector   45  Occ=0.000000D+00  E= 6.032172D+01

 Vector    1  Occ=1.000000D+00  E=-1.963227D+01

 Vector    2  Occ=1.000000D+00  E=-1.317560D+00

 Vector    3  Occ=0.000000D+00  E=-7.340356D-01

 Vector    4  Occ=0.000000D+00  E=-7.340356D-01

 Vector    5  Occ=0.000000D+00  E=-7.340356D-01

 Vector    6  Occ=0.000000D+00  E=-1.752415D-01

 Vector    7  Occ=0.000000D+00  E=-8.427306D-02

 Vector    8  Occ=0.000000D+00  E=-8.427306D-02

 Vector    9  Occ=0.000000D+00  E=-8.427306D-02

 Vector   10  Occ=0.000000D+00  E= 3.756748D-01

 Vector   11  Occ=0.000000D+00  E= 3.756748D-01

 Vector   12  Occ=0.000000D+00  E= 3.756748D-01

 Vector   13  Occ=0.000000D+00  E= 3.756748D-01

 Vector   14  Occ=0.000000D+00  E= 3.756748D-01

 Vector   15  Occ=0.000000D+00  E= 4.226563D-01

 Vector   16  Occ=0.000000D+00  E= 6.043828D-01

 Vector   17  Occ=0.000000D+00  E= 6.043828D-01

 Vector   18  Occ=0.000000D+00  E= 6.043828D-01

 Vector   19  Occ=0.000000D+00  E= 2.092174D+00

 Vector   20  Occ=0.000000D+00  E= 2.815872D+00

 Vector   21  Occ=0.000000D+00  E= 2.815872D+00

 Vector   22  Occ=0.000000D+00  E= 2.815872D+00

 Vector   23  Occ=0.000000D+00  E= 2.815872D+00

 Vector   24  Occ=0.000000D+00  E= 2.815872D+00

 Vector   25  Occ=0.000000D+00  E= 4.106139D+00

 Vector   26  Occ=0.000000D+00  E= 4.106139D+00

 Vector   27  Occ=0.000000D+00  E= 4.106139D+00

 Vector   28  Occ=0.000000D+00  E= 4.509682D+00

 Vector   29  Occ=0.000000D+00  E= 4.509682D+00

 Vector   30  Occ=0.000000D+00  E= 4.509682D+00

 Vector   31  Occ=0.000000D+00  E= 4.509682D+00

 Vector   32  Occ=0.000000D+00  E= 4.509682D+00

 Vector   33  Occ=0.000000D+00  E= 4.509682D+00

 Vector   34  Occ=0.000000D+00  E= 4.509682D+00

 Vector   35  Occ=0.000000D+00  E= 6.397271D+00

 Vector   36  Occ=0.000000D+00  E= 1.375596D+01

 Vector   37  Occ=0.000000D+00  E= 1.375596D+01

 Vector   38  Occ=0.000000D+00  E= 1.375596D+01

 Vector   39  Occ=0.000000D+00  E= 1.375596D+01

 Vector   40  Occ=0.000000D+00  E= 1.375596D+01

 Vector   41  Occ=0.000000D+00  E= 1.573059D+01

 Vector   42  Occ=0.000000D+00  E= 1.573059D+01

 Vector   43  Occ=0.000000D+00  E= 1.573059D+01

 Vector   44  Occ=0.000000D+00  E= 1.815858D+01

 Vector   45  Occ=0.000000D+00  E= 6.053286D+01

 Total times  cpu:        1.2s     wall:        2.0s
