 Output coordinates in angstroms (scale by  1.889725989 to convert to a.u.)

  No.       Tag          Charge          X              Y              Z
 ---- ---------------- ---------- -------------- -------------- --------------
    1 O                    8.0000     0.00000000     0.00000000    -0.55499500
    2 O                    8.0000     0.00000000     0.00000000     0.55499500

         Total DFT energy =     -149.954025523108

                    DFT Final Alpha Molecular Orbital Analysis
                    ------------------------------------------

 Vector    1  Occ=1.000000D+00  E=-1.955516D+01

 Vector   11  Occ=0.000000D+00  E=-1.518662D-01

 Vector   12  Occ=0.000000D+00  E=-1.155610D-01

 Vector   13  Occ=0.000000D+00  E=-1.074550D-01

 Vector   14  Occ=0.000000D+00  E=-4.145202D-02

 Vector   15  Occ=0.000000D+00  E=-4.102150D-02

 Vector   16  Occ=0.000000D+00  E=-6.093751D-03

 Vector   17  Occ=0.000000D+00  E= 1.815906D-05

 Vector   18  Occ=0.000000D+00  E= 1.202597D-01

 Vector   19  Occ=0.000000D+00  E= 2.502163D-01

 Vector   20  Occ=0.000000D+00  E= 2.504559D-01

 Vector   21  Occ=0.000000D+00  E= 3.952114D-01

 Vector   22  Occ=0.000000D+00  E= 4.703498D-01

 Vector   23  Occ=0.000000D+00  E= 4.815039D-01

 Vector   24  Occ=0.000000D+00  E= 4.982815D-01

 Vector   25  Occ=0.000000D+00  E= 5.280316D-01

 Vector   26  Occ=0.000000D+00  E= 5.629253D-01

 Vector   27  Occ=0.000000D+00  E= 5.883212D-01

 Vector   28  Occ=0.000000D+00  E= 6.110472D-01

 Vector   29  Occ=0.000000D+00  E= 6.112263D-01

 Vector   30  Occ=0.000000D+00  E= 6.581352D-01

 Vector   31  Occ=0.000000D+00  E= 6.795338D-01

 Vector   32  Occ=0.000000D+00  E= 7.517832D-01

 Vector   33  Occ=0.000000D+00  E= 1.032921D+00

 Vector   34  Occ=0.000000D+00  E= 1.046596D+00

 Vector   35  Occ=0.000000D+00  E= 1.167398D+00

 Vector   36  Occ=0.000000D+00  E= 1.390871D+00

 Vector   37  Occ=0.000000D+00  E= 2.035486D+00

 Vector   38  Occ=0.000000D+00  E= 2.304157D+00

 Vector   39  Occ=0.000000D+00  E= 2.317455D+00

 Vector   40  Occ=0.000000D+00  E= 2.335917D+00

 Vector   41  Occ=0.000000D+00  E= 2.615969D+00

 Vector   42  Occ=0.000000D+00  E= 2.619173D+00

 Vector   43  Occ=0.000000D+00  E= 2.765892D+00

 Vector   44  Occ=0.000000D+00  E= 2.920484D+00

 Vector   45  Occ=0.000000D+00  E= 2.920658D+00

 Vector   46  Occ=0.000000D+00  E= 3.322658D+00

 Vector   47  Occ=0.000000D+00  E= 3.360578D+00

 Vector   48  Occ=0.000000D+00  E= 3.905382D+00

 Vector   49  Occ=0.000000D+00  E= 3.960168D+00

 Vector   50  Occ=0.000000D+00  E= 4.002426D+00

 Vector   51  Occ=0.000000D+00  E= 4.012890D+00

 Vector   52  Occ=0.000000D+00  E= 4.014440D+00

 Vector   53  Occ=0.000000D+00  E= 4.127039D+00

 Vector   54  Occ=0.000000D+00  E= 4.161439D+00

 Vector   55  Occ=0.000000D+00  E= 4.207257D+00

 Vector   56  Occ=0.000000D+00  E= 4.289598D+00

 Vector   57  Occ=0.000000D+00  E= 4.289662D+00

 Vector   58  Occ=0.000000D+00  E= 4.672879D+00

 Vector   59  Occ=0.000000D+00  E= 4.672931D+00

 Vector   60  Occ=0.000000D+00  E= 4.775054D+00

 Vector   61  Occ=0.000000D+00  E= 4.810792D+00

 Vector   62  Occ=0.000000D+00  E= 5.010773D+00

 Vector   63  Occ=0.000000D+00  E= 5.440825D+00

 Vector   64  Occ=0.000000D+00  E= 5.442063D+00

 Vector   65  Occ=0.000000D+00  E= 5.603147D+00

 Vector   66  Occ=0.000000D+00  E= 6.351935D+00

 Vector   67  Occ=0.000000D+00  E= 6.379503D+00

 Vector   68  Occ=0.000000D+00  E= 6.680307D+00

 Vector   69  Occ=0.000000D+00  E= 6.716296D+00

 Vector   70  Occ=0.000000D+00  E= 8.796886D+00

 Vector   71  Occ=0.000000D+00  E= 1.350814D+01

 Vector   72  Occ=0.000000D+00  E= 1.354006D+01

 Vector   73  Occ=0.000000D+00  E= 1.354091D+01

 Vector   74  Occ=0.000000D+00  E= 1.354912D+01

 Vector   75  Occ=0.000000D+00  E= 1.373105D+01

 Vector   76  Occ=0.000000D+00  E= 1.373120D+01

 Vector   77  Occ=0.000000D+00  E= 1.417493D+01

 Vector   78  Occ=0.000000D+00  E= 1.453460D+01

 Vector   79  Occ=0.000000D+00  E= 1.457611D+01

 Vector   80  Occ=0.000000D+00  E= 1.564791D+01

 Vector   81  Occ=0.000000D+00  E= 1.571286D+01

 Vector   82  Occ=0.000000D+00  E= 1.575542D+01

 Vector   83  Occ=0.000000D+00  E= 1.580423D+01

 Vector   84  Occ=0.000000D+00  E= 1.584752D+01

 Vector   85  Occ=0.000000D+00  E= 1.637212D+01

 Vector   86  Occ=0.000000D+00  E= 1.710127D+01

 Vector   87  Occ=0.000000D+00  E= 1.831774D+01

 Vector   88  Occ=0.000000D+00  E= 1.923819D+01

 Vector   89  Occ=0.000000D+00  E= 6.041295D+01

 Vector   90  Occ=0.000000D+00  E= 6.067096D+01

     Multipole analysis of the density
     ---------------------------------

     L   x y z        total         alpha         beta         nuclear
     -   - - -        -----         -----         ----         -------
     0   0 0 0      1.000000     -8.000000     -7.000000     16.000000

     1   1 0 0      0.000000      0.000000      0.000000      0.000000
     1   0 1 0     -0.000000     -0.000000      0.000000      0.000000
     1   0 0 1      0.000000      0.000000      0.000000      0.000000

     2   2 0 0     -5.625902     -2.958357     -2.667546      0.000000
     2   1 1 0      0.165141      0.173823     -0.008682      0.000000
     2   1 0 1     -0.000000     -0.000000     -0.000000      0.000000
     2   0 2 0     -6.076525     -3.432668     -2.643856      0.000000
     2   0 1 1     -0.000000     -0.000000     -0.000000      0.000000

 Total times  cpu:        1.9s     wall:        3.3s
