 Output coordinates in angstroms (scale by  1.889725989 to convert to a.u.)

  No.       Tag          Charge          X              Y              Z
 ---- ---------------- ---------- -------------- -------------- --------------
    1 O                    8.0000     0.00000000     0.00000000    -0.60066000
    2 O                    8.0000     0.00000000     0.00000000     0.60066000

         Total DFT energy =     -150.404714374261

                    DFT Final Alpha Molecular Orbital Analysis
                    ------------------------------------------

 Vector    1  Occ=1.000000D+00  E=-1.903922D+01

 Vector   11  Occ=0.000000D+00  E= 8.862556D-02

 Vector   12  Occ=0.000000D+00  E= 1.328657D-01

 Vector   13  Occ=0.000000D+00  E= 1.328657D-01

 Vector   14  Occ=0.000000D+00  E= 1.879161D-01

 Vector   15  Occ=0.000000D+00  E= 2.133400D-01

 Vector   16  Occ=0.000000D+00  E= 2.133400D-01

 Vector   17  Occ=0.000000D+00  E= 2.495063D-01

 Vector   18  Occ=0.000000D+00  E= 3.216775D-01

 Vector   19  Occ=0.000000D+00  E= 6.170740D-01

 Vector   20  Occ=0.000000D+00  E= 6.170741D-01

 Vector   21  Occ=0.000000D+00  E= 7.103342D-01

 Vector   22  Occ=0.000000D+00  E= 7.959499D-01

 Vector   23  Occ=0.000000D+00  E= 8.171091D-01

 Vector   24  Occ=0.000000D+00  E= 8.171091D-01

 Vector   25  Occ=0.000000D+00  E= 8.467469D-01

 Vector   26  Occ=0.000000D+00  E= 9.403109D-01

 Vector   27  Occ=0.000000D+00  E= 9.403110D-01

 Vector   28  Occ=0.000000D+00  E= 9.423406D-01

 Vector   29  Occ=0.000000D+00  E= 9.423406D-01

 Vector   30  Occ=0.000000D+00  E= 1.005777D+00

 Vector   31  Occ=0.000000D+00  E= 1.005777D+00

 Vector   32  Occ=0.000000D+00  E= 1.056443D+00

 Vector   33  Occ=0.000000D+00  E= 1.356622D+00

 Vector   34  Occ=0.000000D+00  E= 1.356622D+00

 Vector   35  Occ=0.000000D+00  E= 1.511659D+00

 Vector   36  Occ=0.000000D+00  E= 1.674763D+00

 Vector   37  Occ=0.000000D+00  E= 2.446669D+00

 Vector   38  Occ=0.000000D+00  E= 2.674981D+00

 Vector   39  Occ=0.000000D+00  E= 2.809816D+00

 Vector   40  Occ=0.000000D+00  E= 2.809816D+00

 Vector   41  Occ=0.000000D+00  E= 3.068002D+00

 Vector   42  Occ=0.000000D+00  E= 3.162034D+00

 Vector   43  Occ=0.000000D+00  E= 3.162034D+00

 Vector   44  Occ=0.000000D+00  E= 3.366310D+00

 Vector   45  Occ=0.000000D+00  E= 3.366310D+00

 Vector   46  Occ=0.000000D+00  E= 3.679144D+00

 Vector   47  Occ=0.000000D+00  E= 3.679144D+00

 Vector   48  Occ=0.000000D+00  E= 4.153293D+00

 Vector   49  Occ=0.000000D+00  E= 4.428937D+00

 Vector   50  Occ=0.000000D+00  E= 4.428937D+00

 Vector   51  Occ=0.000000D+00  E= 4.492989D+00

 Vector   52  Occ=0.000000D+00  E= 4.492990D+00

 Vector   53  Occ=0.000000D+00  E= 4.543333D+00

 Vector   54  Occ=0.000000D+00  E= 4.653291D+00

 Vector   55  Occ=0.000000D+00  E= 4.653291D+00

 Vector   56  Occ=0.000000D+00  E= 4.838112D+00

 Vector   57  Occ=0.000000D+00  E= 4.838112D+00

 Vector   58  Occ=0.000000D+00  E= 5.072271D+00

 Vector   59  Occ=0.000000D+00  E= 5.072271D+00

 Vector   60  Occ=0.000000D+00  E= 5.100882D+00

 Vector   61  Occ=0.000000D+00  E= 5.100882D+00

 Vector   62  Occ=0.000000D+00  E= 5.279369D+00

 Vector   63  Occ=0.000000D+00  E= 5.705385D+00

 Vector   64  Occ=0.000000D+00  E= 5.705386D+00

 Vector   65  Occ=0.000000D+00  E= 5.820695D+00

 Vector   66  Occ=0.000000D+00  E= 6.774629D+00

 Vector   67  Occ=0.000000D+00  E= 6.820551D+00

 Vector   68  Occ=0.000000D+00  E= 6.820551D+00

 Vector   69  Occ=0.000000D+00  E= 6.836701D+00

 Vector   70  Occ=0.000000D+00  E= 8.712506D+00

 Vector   71  Occ=0.000000D+00  E= 1.400019D+01

 Vector   72  Occ=0.000000D+00  E= 1.400019D+01

 Vector   73  Occ=0.000000D+00  E= 1.409697D+01

 Vector   74  Occ=0.000000D+00  E= 1.409697D+01

 Vector   75  Occ=0.000000D+00  E= 1.423460D+01

 Vector   76  Occ=0.000000D+00  E= 1.423460D+01

 Vector   77  Occ=0.000000D+00  E= 1.434877D+01

 Vector   78  Occ=0.000000D+00  E= 1.481511D+01

 Vector   79  Occ=0.000000D+00  E= 1.481511D+01

 Vector   80  Occ=0.000000D+00  E= 1.583465D+01

 Vector   81  Occ=0.000000D+00  E= 1.621544D+01

 Vector   82  Occ=0.000000D+00  E= 1.621544D+01

 Vector   83  Occ=0.000000D+00  E= 1.635378D+01

 Vector   84  Occ=0.000000D+00  E= 1.635378D+01

 Vector   85  Occ=0.000000D+00  E= 1.668776D+01

 Vector   86  Occ=0.000000D+00  E= 1.737499D+01

 Vector   87  Occ=0.000000D+00  E= 1.884857D+01

 Vector   88  Occ=0.000000D+00  E= 1.949907D+01

 Vector   89  Occ=0.000000D+00  E= 6.103226D+01

 Vector   90  Occ=0.000000D+00  E= 6.107527D+01

     Multipole analysis of the density
     ---------------------------------

     L   x y z        total         alpha         beta         nuclear
     -   - - -        -----         -----         ----         -------
     0   0 0 0     -0.000000     -9.000000     -7.000000     16.000000

     1   1 0 0     -0.000000     -0.000000     -0.000000      0.000000
     1   0 1 0      0.000000     -0.000000      0.000000      0.000000
     1   0 0 1      0.000007      0.000001      0.000006      0.000000

     2   2 0 0     -7.496869     -4.366208     -3.130661      0.000000
     2   1 1 0     -0.000000      0.000000     -0.000000      0.000000
     2   1 0 1      0.000000      0.000000      0.000000      0.000000
     2   0 2 0     -7.496869     -4.366208     -3.130661      0.000000
     2   0 1 1      0.000000      0.000000      0.000000      0.000000

 Total times  cpu:        1.9s     wall:        3.7s
