 Output coordinates in angstroms (scale by  1.889725989 to convert to a.u.)

  No.       Tag          Charge          X              Y              Z
 ---- ---------------- ---------- -------------- -------------- --------------
    1 H                    1.0000     0.00000000     0.00000000    -0.91251556
    2 O                    8.0000     0.00000000     0.00000000     0.11406444

         Total DFT energy =      -75.296007805030

                    DFT Final Alpha Molecular Orbital Analysis
                    ------------------------------------------

 Vector    1  Occ=1.000000D+00  E=-1.956496D+01

 Vector   49  Occ=0.000000D+00  E= 5.605304D+00

 Vector   50  Occ=0.000000D+00  E= 6.028665D+00

 Vector   51  Occ=0.000000D+00  E= 6.719838D+00

 Vector   52  Occ=0.000000D+00  E= 7.911830D+00

 Vector   53  Occ=0.000000D+00  E= 7.911830D+00

 Vector   54  Occ=0.000000D+00  E= 8.881144D+00

 Vector   55  Occ=0.000000D+00  E= 1.345310D+01

 Vector   56  Occ=0.000000D+00  E= 1.345311D+01

 Vector   57  Occ=0.000000D+00  E= 1.377147D+01

 Vector   58  Occ=0.000000D+00  E= 1.377147D+01

 Vector   59  Occ=0.000000D+00  E= 1.466415D+01

 Vector   60  Occ=0.000000D+00  E= 1.568900D+01

 Vector   61  Occ=0.000000D+00  E= 1.568900D+01

 Vector   62  Occ=0.000000D+00  E= 1.601862D+01

 Vector   63  Occ=0.000000D+00  E= 1.840111D+01

 Vector   64  Occ=0.000000D+00  E= 6.048020D+01

 Vector    1  Occ=1.000000D+00  E=-1.950649D+01

 Vector    2  Occ=1.000000D+00  E=-1.351645D+00

 Vector    3  Occ=1.000000D+00  E=-8.798851D-01

 Vector    4  Occ=0.000000D+00  E=-6.693292D-01

 Vector    5  Occ=0.000000D+00  E=-6.693292D-01

 Vector    6  Occ=0.000000D+00  E=-3.071869D-01

 Vector    7  Occ=0.000000D+00  E=-1.354577D-01

 Vector    8  Occ=0.000000D+00  E=-8.803569D-02

 Vector    9  Occ=0.000000D+00  E=-8.803569D-02

 Vector   10  Occ=0.000000D+00  E=-7.506166D-02

 Vector   11  Occ=0.000000D+00  E=-1.320871D-02

 Vector   12  Occ=0.000000D+00  E= 6.214631D-02

 Vector   13  Occ=0.000000D+00  E= 6.214631D-02

 Vector   14  Occ=0.000000D+00  E= 1.526077D-01

 Vector   15  Occ=0.000000D+00  E= 3.693390D-01

 Vector   16  Occ=0.000000D+00  E= 3.979961D-01

 Vector   17  Occ=0.000000D+00  E= 3.979965D-01

 Vector   18  Occ=0.000000D+00  E= 5.458183D-01

 Vector   19  Occ=0.000000D+00  E= 5.891919D-01

 Vector   20  Occ=0.000000D+00  E= 5.931636D-01

 Vector   21  Occ=0.000000D+00  E= 5.931636D-01

 Vector   22  Occ=0.000000D+00  E= 6.569901D-01

 Vector   23  Occ=0.000000D+00  E= 6.569901D-01

 Vector   24  Occ=0.000000D+00  E= 1.085403D+00

 Vector   25  Occ=0.000000D+00  E= 1.410664D+00

 Vector   26  Occ=0.000000D+00  E= 1.410664D+00

 Vector   27  Occ=0.000000D+00  E= 1.452214D+00

 Vector   28  Occ=0.000000D+00  E= 2.125019D+00

 Vector   29  Occ=0.000000D+00  E= 2.365374D+00

 Vector   30  Occ=0.000000D+00  E= 2.581733D+00

 Vector   31  Occ=0.000000D+00  E= 2.581733D+00

 Vector   32  Occ=0.000000D+00  E= 2.671809D+00

 Vector   33  Occ=0.000000D+00  E= 2.671809D+00

 Vector   34  Occ=0.000000D+00  E= 2.885024D+00

 Vector   35  Occ=0.000000D+00  E= 2.885027D+00

 Vector   36  Occ=0.000000D+00  E= 3.097494D+00

 Vector   37  Occ=0.000000D+00  E= 3.552935D+00

 Vector   38  Occ=0.000000D+00  E= 3.552935D+00

 Vector   39  Occ=0.000000D+00  E= 3.839730D+00

 Vector   40  Occ=0.000000D+00  E= 4.032448D+00

 Vector   41  Occ=0.000000D+00  E= 4.223874D+00

 Vector   42  Occ=0.000000D+00  E= 4.223874D+00

 Vector   43  Occ=0.000000D+00  E= 4.550323D+00

 Vector   44  Occ=0.000000D+00  E= 4.550323D+00

 Vector   45  Occ=0.000000D+00  E= 4.772230D+00

 Vector   46  Occ=0.000000D+00  E= 4.772232D+00

 Vector   47  Occ=0.000000D+00  E= 5.342295D+00

 Vector   48  Occ=0.000000D+00  E= 5.756104D+00

 Vector   49  Occ=0.000000D+00  E= 5.756104D+00

 Vector   50  Occ=0.000000D+00  E= 6.165762D+00

 Vector   51  Occ=0.000000D+00  E= 6.871993D+00

 Vector   52  Occ=0.000000D+00  E= 8.157698D+00

 Vector   53  Occ=0.000000D+00  E= 8.157698D+00

 Vector   54  Occ=0.000000D+00  E= 9.245015D+00

 Vector   55  Occ=0.000000D+00  E= 1.377915D+01

 Vector   56  Occ=0.000000D+00  E= 1.377915D+01

 Vector   57  Occ=0.000000D+00  E= 1.407188D+01

 Vector   58  Occ=0.000000D+00  E= 1.407188D+01

 Vector   59  Occ=0.000000D+00  E= 1.504247D+01

 Vector   60  Occ=0.000000D+00  E= 1.583425D+01

 Vector   61  Occ=0.000000D+00  E= 1.583425D+01

 Vector   62  Occ=0.000000D+00  E= 1.620139D+01

 Vector   63  Occ=0.000000D+00  E= 1.864887D+01

 Vector   64  Occ=0.000000D+00  E= 6.062674D+01

     Multipole analysis of the density
     ---------------------------------

     L   x y z        total         alpha         beta         nuclear
     -   - - -        -----         -----         ----         -------
     0   0 0 0      1.000000     -5.000000     -3.000000      9.000000

     1   1 0 0      0.000000      0.000000      0.000000      0.000000
     1   0 1 0      0.000000      0.000000      0.000000      0.000000
     1   0 0 1     -0.776750     -0.573653     -0.203098     -0.000000

     2   2 0 0     -3.023265     -2.153909     -0.869356      0.000000
     2   1 1 0     -0.000000     -0.000000     -0.000000      0.000000
     2   1 0 1      0.000000      0.000000      0.000000      0.000000
     2   0 2 0     -3.023265     -2.153909     -0.869356      0.000000
     2   0 1 1      0.000000      0.000000      0.000000      0.000000

 Total times  cpu:        1.3s     wall:        2.2s
