 Output coordinates in angstroms (scale by  1.889725989 to convert to a.u.)

  No.       Tag          Charge          X              Y              Z
 ---- ---------------- ---------- -------------- -------------- --------------
    1 P                   15.0000     0.00000000     0.00000000     0.00000000

         Total DFT energy =     -340.901421456424

                    DFT Final Alpha Molecular Orbital Analysis
                    ------------------------------------------

 Vector    1  Occ=1.000000D+00  E=-7.703416D+01

 Vector   27  Occ=0.000000D+00  E= 4.855580D-01

 Vector   28  Occ=0.000000D+00  E= 6.465695D-01

 Vector   29  Occ=0.000000D+00  E= 6.465705D-01

 Vector   30  Occ=0.000000D+00  E= 6.494043D-01

 Vector   31  Occ=0.000000D+00  E= 7.655418D-01

 Vector   32  Occ=0.000000D+00  E= 9.381967D-01

 Vector   33  Occ=0.000000D+00  E= 9.381967D-01

 Vector   34  Occ=0.000000D+00  E= 9.409911D-01

 Vector   35  Occ=0.000000D+00  E= 9.409912D-01

 Vector   36  Occ=0.000000D+00  E= 9.459215D-01

 Vector   37  Occ=0.000000D+00  E= 9.459215D-01

 Vector   38  Occ=0.000000D+00  E= 9.470384D-01

 Vector   39  Occ=0.000000D+00  E= 2.157207D+00

 Vector   40  Occ=0.000000D+00  E= 2.184043D+00

 Vector   41  Occ=0.000000D+00  E= 2.184044D+00

 Vector   42  Occ=0.000000D+00  E= 2.851779D+00

 Vector   43  Occ=0.000000D+00  E= 3.590471D+00

 Vector   44  Occ=0.000000D+00  E= 3.593843D+00

 Vector   45  Occ=0.000000D+00  E= 3.593843D+00

 Vector   46  Occ=0.000000D+00  E= 3.611967D+00

 Vector   47  Occ=0.000000D+00  E= 3.611967D+00

 Vector   48  Occ=0.000000D+00  E= 8.189811D+00

 Vector   49  Occ=0.000000D+00  E= 1.410024D+01

 Vector   50  Occ=0.000000D+00  E= 1.411016D+01

 Vector   51  Occ=0.000000D+00  E= 1.411016D+01

 Vector   52  Occ=0.000000D+00  E= 2.080278D+01

 Vector   53  Occ=0.000000D+00  E= 1.881505D+02

 Vector    1  Occ=1.000000D+00  E=-7.702414D+01

 Vector    2  Occ=1.000000D+00  E=-6.795824D+00

 Vector    3  Occ=1.000000D+00  E=-4.985404D+00

 Vector    4  Occ=1.000000D+00  E=-4.964423D+00

 Vector    5  Occ=1.000000D+00  E=-4.964423D+00

 Vector    6  Occ=1.000000D+00  E=-8.021843D-01

 Vector    7  Occ=0.000000D+00  E=-5.036649D-01

 Vector    8  Occ=0.000000D+00  E=-4.525378D-01

 Vector    9  Occ=0.000000D+00  E=-4.525378D-01

 Vector   10  Occ=0.000000D+00  E=-1.563229D-01

 Vector   11  Occ=0.000000D+00  E=-1.024218D-01

 Vector   12  Occ=0.000000D+00  E=-9.354728D-02

 Vector   13  Occ=0.000000D+00  E=-9.146820D-02

 Vector   14  Occ=0.000000D+00  E=-9.141773D-02

 Vector   15  Occ=0.000000D+00  E=-8.502744D-02

 Vector   16  Occ=0.000000D+00  E=-8.502742D-02

 Vector   17  Occ=0.000000D+00  E=-6.361496D-02

 Vector   18  Occ=0.000000D+00  E=-6.361495D-02

 Vector   19  Occ=0.000000D+00  E= 7.431302D-02

 Vector   20  Occ=0.000000D+00  E= 8.896769D-02

 Vector   21  Occ=0.000000D+00  E= 8.899730D-02

 Vector   22  Occ=0.000000D+00  E= 9.074060D-02

 Vector   23  Occ=0.000000D+00  E= 5.167828D-01

 Vector   24  Occ=0.000000D+00  E= 5.274013D-01

 Vector   25  Occ=0.000000D+00  E= 5.274013D-01

 Vector   26  Occ=0.000000D+00  E= 5.623796D-01

 Vector   27  Occ=0.000000D+00  E= 5.623796D-01

 Vector   28  Occ=0.000000D+00  E= 6.677170D-01

 Vector   29  Occ=0.000000D+00  E= 6.919310D-01

 Vector   30  Occ=0.000000D+00  E= 6.919327D-01

 Vector   31  Occ=0.000000D+00  E= 8.034544D-01

 Vector   32  Occ=0.000000D+00  E= 9.845954D-01

 Vector   33  Occ=0.000000D+00  E= 9.900403D-01

 Vector   34  Occ=0.000000D+00  E= 9.900404D-01

 Vector   35  Occ=0.000000D+00  E= 1.008139D+00

 Vector   36  Occ=0.000000D+00  E= 1.008139D+00

 Vector   37  Occ=0.000000D+00  E= 1.036479D+00

 Vector   38  Occ=0.000000D+00  E= 1.036479D+00

 Vector   39  Occ=0.000000D+00  E= 2.176639D+00

 Vector   40  Occ=0.000000D+00  E= 2.212639D+00

 Vector   41  Occ=0.000000D+00  E= 2.212640D+00

 Vector   42  Occ=0.000000D+00  E= 2.875914D+00

 Vector   43  Occ=0.000000D+00  E= 3.603520D+00

 Vector   44  Occ=0.000000D+00  E= 3.612269D+00

 Vector   45  Occ=0.000000D+00  E= 3.612269D+00

 Vector   46  Occ=0.000000D+00  E= 3.639399D+00

 Vector   47  Occ=0.000000D+00  E= 3.639399D+00

 Vector   48  Occ=0.000000D+00  E= 8.210434D+00

 Vector   49  Occ=0.000000D+00  E= 1.411182D+01

 Vector   50  Occ=0.000000D+00  E= 1.413515D+01

 Vector   51  Occ=0.000000D+00  E= 1.413515D+01

 Vector   52  Occ=0.000000D+00  E= 2.082054D+01

 Vector   53  Occ=0.000000D+00  E= 1.881614D+02

 Total times  cpu:        1.3s     wall:        2.0s
