 Output coordinates in angstroms (scale by  1.889725989 to convert to a.u.)

  No.       Tag          Charge          X              Y              Z
 ---- ---------------- ---------- -------------- -------------- --------------
    1 P                   15.0000     0.00000000     0.00000000     0.00000000

         Total DFT energy =     -341.287415820535

                    DFT Final Alpha Molecular Orbital Analysis
                    ------------------------------------------

 Vector    1  Occ=1.000000D+00  E=-7.662315D+01

 Vector   27  Occ=0.000000D+00  E= 8.037740D-01

 Vector   28  Occ=0.000000D+00  E= 9.076983D-01

 Vector   29  Occ=0.000000D+00  E= 9.076983D-01

 Vector   30  Occ=0.000000D+00  E= 9.076983D-01

 Vector   31  Occ=0.000000D+00  E= 1.038401D+00

 Vector   32  Occ=0.000000D+00  E= 1.266326D+00

 Vector   33  Occ=0.000000D+00  E= 1.266326D+00

 Vector   34  Occ=0.000000D+00  E= 1.266326D+00

 Vector   35  Occ=0.000000D+00  E= 1.266326D+00

 Vector   36  Occ=0.000000D+00  E= 1.266326D+00

 Vector   37  Occ=0.000000D+00  E= 1.266326D+00

 Vector   38  Occ=0.000000D+00  E= 1.266326D+00

 Vector   39  Occ=0.000000D+00  E= 2.501144D+00

 Vector   40  Occ=0.000000D+00  E= 2.501144D+00

 Vector   41  Occ=0.000000D+00  E= 2.501144D+00

 Vector   42  Occ=0.000000D+00  E= 3.181026D+00

 Vector   43  Occ=0.000000D+00  E= 3.977455D+00

 Vector   44  Occ=0.000000D+00  E= 3.977455D+00

 Vector   45  Occ=0.000000D+00  E= 3.977455D+00

 Vector   46  Occ=0.000000D+00  E= 3.977455D+00

 Vector   47  Occ=0.000000D+00  E= 3.977455D+00

 Vector   48  Occ=0.000000D+00  E= 8.552016D+00

 Vector   49  Occ=0.000000D+00  E= 1.450144D+01

 Vector   50  Occ=0.000000D+00  E= 1.450144D+01

 Vector   51  Occ=0.000000D+00  E= 1.450144D+01

 Vector   52  Occ=0.000000D+00  E= 2.118606D+01

 Vector   53  Occ=0.000000D+00  E= 1.885575D+02

 Vector    1  Occ=1.000000D+00  E=-7.661074D+01

 Vector    2  Occ=1.000000D+00  E=-6.391184D+00

 Vector    3  Occ=1.000000D+00  E=-4.565576D+00

 Vector    4  Occ=1.000000D+00  E=-4.565576D+00

 Vector    5  Occ=1.000000D+00  E=-4.565576D+00

 Vector    6  Occ=1.000000D+00  E=-4.374092D-01

 Vector    7  Occ=0.000000D+00  E=-1.342572D-01

 Vector    8  Occ=0.000000D+00  E=-1.342572D-01

 Vector    9  Occ=0.000000D+00  E=-1.342572D-01

 Vector   10  Occ=0.000000D+00  E= 2.927600D-02

 Vector   11  Occ=0.000000D+00  E= 6.429253D-02

 Vector   12  Occ=0.000000D+00  E= 6.429253D-02

 Vector   13  Occ=0.000000D+00  E= 6.429253D-02

 Vector   14  Occ=0.000000D+00  E= 2.060736D-01

 Vector   15  Occ=0.000000D+00  E= 2.060736D-01

 Vector   16  Occ=0.000000D+00  E= 2.060736D-01

 Vector   17  Occ=0.000000D+00  E= 2.060736D-01

 Vector   18  Occ=0.000000D+00  E= 2.060736D-01

 Vector   19  Occ=0.000000D+00  E= 2.874840D-01

 Vector   20  Occ=0.000000D+00  E= 2.874840D-01

 Vector   21  Occ=0.000000D+00  E= 2.874840D-01

 Vector   22  Occ=0.000000D+00  E= 3.043375D-01

 Vector   23  Occ=0.000000D+00  E= 8.851477D-01

 Vector   24  Occ=0.000000D+00  E= 8.851477D-01

 Vector   25  Occ=0.000000D+00  E= 8.851477D-01

 Vector   26  Occ=0.000000D+00  E= 8.851477D-01

 Vector   27  Occ=0.000000D+00  E= 8.851477D-01

 Vector   28  Occ=0.000000D+00  E= 9.599727D-01

 Vector   29  Occ=0.000000D+00  E= 9.599727D-01

 Vector   30  Occ=0.000000D+00  E= 9.599727D-01

 Vector   31  Occ=0.000000D+00  E= 1.085769D+00

 Vector   32  Occ=0.000000D+00  E= 1.358056D+00

 Vector   33  Occ=0.000000D+00  E= 1.358056D+00

 Vector   34  Occ=0.000000D+00  E= 1.358056D+00

 Vector   35  Occ=0.000000D+00  E= 1.358056D+00

 Vector   36  Occ=0.000000D+00  E= 1.358056D+00

 Vector   37  Occ=0.000000D+00  E= 1.358056D+00

 Vector   38  Occ=0.000000D+00  E= 1.358056D+00

 Vector   39  Occ=0.000000D+00  E= 2.542538D+00

 Vector   40  Occ=0.000000D+00  E= 2.542538D+00

 Vector   41  Occ=0.000000D+00  E= 2.542538D+00

 Vector   42  Occ=0.000000D+00  E= 3.228244D+00

 Vector   43  Occ=0.000000D+00  E= 4.009200D+00

 Vector   44  Occ=0.000000D+00  E= 4.009200D+00

 Vector   45  Occ=0.000000D+00  E= 4.009200D+00

 Vector   46  Occ=0.000000D+00  E= 4.009200D+00

 Vector   47  Occ=0.000000D+00  E= 4.009200D+00

 Vector   48  Occ=0.000000D+00  E= 8.599580D+00

 Vector   49  Occ=0.000000D+00  E= 1.452914D+01

 Vector   50  Occ=0.000000D+00  E= 1.452914D+01

 Vector   51  Occ=0.000000D+00  E= 1.452914D+01

 Vector   52  Occ=0.000000D+00  E= 2.121863D+01

 Vector   53  Occ=0.000000D+00  E= 1.885722D+02

 Total times  cpu:        1.4s     wall:        2.1s
