 Output coordinates in angstroms (scale by  1.889725989 to convert to a.u.)

  No.       Tag          Charge          X              Y              Z
 ---- ---------------- ---------- -------------- -------------- --------------
    1 P                   15.0000     0.00000000     0.00000000    -0.08891125
    2 H                    1.0000     0.00000000     0.00000000     1.33366875

         Total DFT energy =     -341.535389586594

                    DFT Final Alpha Molecular Orbital Analysis
                    ------------------------------------------

 Vector    1  Occ=1.000000D+00  E=-7.700490D+01

 Vector   65  Occ=0.000000D+00  E= 8.349089D+00

 Vector   66  Occ=0.000000D+00  E= 8.355761D+00

 Vector   67  Occ=0.000000D+00  E= 9.084419D+00

 Vector   68  Occ=0.000000D+00  E= 1.412886D+01

 Vector   69  Occ=0.000000D+00  E= 1.413936D+01

 Vector   70  Occ=0.000000D+00  E= 1.435278D+01

 Vector   71  Occ=0.000000D+00  E= 2.086057D+01

 Vector   72  Occ=0.000000D+00  E= 1.882254D+02

 Vector    1  Occ=1.000000D+00  E=-7.699996D+01

 Vector    2  Occ=1.000000D+00  E=-6.773834D+00

 Vector    3  Occ=1.000000D+00  E=-4.963066D+00

 Vector    4  Occ=1.000000D+00  E=-4.944862D+00

 Vector    5  Occ=1.000000D+00  E=-4.942407D+00

 Vector    6  Occ=1.000000D+00  E=-8.644290D-01

 Vector    7  Occ=1.000000D+00  E=-6.172362D-01

 Vector    8  Occ=0.000000D+00  E=-5.011015D-01

 Vector    9  Occ=0.000000D+00  E=-4.517979D-01

 Vector   10  Occ=0.000000D+00  E=-2.456058D-01

 Vector   11  Occ=0.000000D+00  E=-1.667421D-01

 Vector   12  Occ=0.000000D+00  E=-1.231126D-01

 Vector   13  Occ=0.000000D+00  E=-1.166332D-01

 Vector   14  Occ=0.000000D+00  E=-1.054926D-01

 Vector   15  Occ=0.000000D+00  E=-1.014764D-01

 Vector   16  Occ=0.000000D+00  E=-9.247649D-02

 Vector   17  Occ=0.000000D+00  E=-8.088281D-02

 Vector   18  Occ=0.000000D+00  E=-8.074872D-02

 Vector   19  Occ=0.000000D+00  E=-4.092965D-02

 Vector   20  Occ=0.000000D+00  E= 4.432017D-02

 Vector   21  Occ=0.000000D+00  E= 6.961140D-02

 Vector   22  Occ=0.000000D+00  E= 7.236735D-02

 Vector   23  Occ=0.000000D+00  E= 8.706073D-02

 Vector   24  Occ=0.000000D+00  E= 1.703818D-01

 Vector   25  Occ=0.000000D+00  E= 2.174139D-01

 Vector   26  Occ=0.000000D+00  E= 2.193049D-01

 Vector   27  Occ=0.000000D+00  E= 2.280970D-01

 Vector   28  Occ=0.000000D+00  E= 4.664892D-01

 Vector   29  Occ=0.000000D+00  E= 5.108430D-01

 Vector   30  Occ=0.000000D+00  E= 5.387935D-01

 Vector   31  Occ=0.000000D+00  E= 5.399656D-01

 Vector   32  Occ=0.000000D+00  E= 5.439721D-01

 Vector   33  Occ=0.000000D+00  E= 6.147303D-01

 Vector   34  Occ=0.000000D+00  E= 6.696483D-01

 Vector   35  Occ=0.000000D+00  E= 6.935588D-01

 Vector   36  Occ=0.000000D+00  E= 7.934657D-01

 Vector   37  Occ=0.000000D+00  E= 8.672027D-01

 Vector   38  Occ=0.000000D+00  E= 9.905812D-01

 Vector   39  Occ=0.000000D+00  E= 9.913248D-01

 Vector   40  Occ=0.000000D+00  E= 1.004029D+00

 Vector   41  Occ=0.000000D+00  E= 1.004319D+00

 Vector   42  Occ=0.000000D+00  E= 1.102014D+00

 Vector   43  Occ=0.000000D+00  E= 1.131992D+00

 Vector   44  Occ=0.000000D+00  E= 1.398806D+00

 Vector   45  Occ=0.000000D+00  E= 1.652258D+00

 Vector   46  Occ=0.000000D+00  E= 1.665331D+00

 Vector   47  Occ=0.000000D+00  E= 1.694785D+00

 Vector   48  Occ=0.000000D+00  E= 2.141445D+00

 Vector   49  Occ=0.000000D+00  E= 2.187327D+00

 Vector   50  Occ=0.000000D+00  E= 2.222017D+00

 Vector   51  Occ=0.000000D+00  E= 2.365865D+00

 Vector   52  Occ=0.000000D+00  E= 2.828943D+00

 Vector   53  Occ=0.000000D+00  E= 2.828946D+00

 Vector   54  Occ=0.000000D+00  E= 2.952869D+00

 Vector   55  Occ=0.000000D+00  E= 3.221235D+00

 Vector   56  Occ=0.000000D+00  E= 3.235217D+00

 Vector   57  Occ=0.000000D+00  E= 3.633522D+00

 Vector   58  Occ=0.000000D+00  E= 3.633580D+00

 Vector   59  Occ=0.000000D+00  E= 3.777399D+00

 Vector   60  Occ=0.000000D+00  E= 3.939958D+00

 Vector   61  Occ=0.000000D+00  E= 3.965805D+00

 Vector   62  Occ=0.000000D+00  E= 4.258014D+00

 Vector   63  Occ=0.000000D+00  E= 4.650072D+00

 Vector   64  Occ=0.000000D+00  E= 8.260268D+00

 Vector   65  Occ=0.000000D+00  E= 8.505984D+00

 Vector   66  Occ=0.000000D+00  E= 8.508090D+00

 Vector   67  Occ=0.000000D+00  E= 9.443445D+00

 Vector   68  Occ=0.000000D+00  E= 1.413544D+01

 Vector   69  Occ=0.000000D+00  E= 1.415805D+01

 Vector   70  Occ=0.000000D+00  E= 1.436868D+01

 Vector   71  Occ=0.000000D+00  E= 2.087592D+01

 Vector   72  Occ=0.000000D+00  E= 1.882315D+02

     Multipole analysis of the density
     ---------------------------------

     L   x y z        total         alpha         beta         nuclear
     -   - - -        -----         -----         ----         -------
     0   0 0 0      1.000000     -8.000000     -7.000000     16.000000

     1   1 0 0     -0.000000     -0.000000     -0.000000      0.000000
     1   0 1 0     -0.000000     -0.000000     -0.000000      0.000000
     1   0 0 1      0.261728      0.152589      0.109139      0.000000

     2   2 0 0     -8.173893     -5.769081     -2.404812      0.000000
     2   1 1 0     -0.114939     -0.126050      0.011110      0.000000
     2   1 0 1     -0.000000     -0.000000     -0.000000      0.000000
     2   0 2 0     -6.170408     -3.571923     -2.598485      0.000000
     2   0 1 1      0.000000      0.000000      0.000000      0.000000

 Total times  cpu:        2.3s     wall:        3.1s
