 Output coordinates in angstroms (scale by  1.889725989 to convert to a.u.)

  No.       Tag          Charge          X              Y              Z
 ---- ---------------- ---------- -------------- -------------- --------------
    1 P                   15.0000     0.00000000     0.00000000    -0.08887625
    2 H                    1.0000     0.00000000     0.00000000     1.33314375

         Total DFT energy =     -341.912320781326

                    DFT Final Alpha Molecular Orbital Analysis
                    ------------------------------------------

 Vector    1  Occ=1.000000D+00  E=-7.660978D+01

 Vector   65  Occ=0.000000D+00  E= 8.625118D+00

 Vector   66  Occ=0.000000D+00  E= 8.625118D+00

 Vector   67  Occ=0.000000D+00  E= 9.339352D+00

 Vector   68  Occ=0.000000D+00  E= 1.451574D+01

 Vector   69  Occ=0.000000D+00  E= 1.451574D+01

 Vector   70  Occ=0.000000D+00  E= 1.472774D+01

 Vector   71  Occ=0.000000D+00  E= 2.123065D+01

 Vector   72  Occ=0.000000D+00  E= 1.886168D+02

 Vector    1  Occ=1.000000D+00  E=-7.660153D+01

 Vector    2  Occ=1.000000D+00  E=-6.383336D+00

 Vector    3  Occ=1.000000D+00  E=-4.559641D+00

 Vector    4  Occ=1.000000D+00  E=-4.557658D+00

 Vector    5  Occ=1.000000D+00  E=-4.557658D+00

 Vector    6  Occ=1.000000D+00  E=-5.172508D-01

 Vector    7  Occ=1.000000D+00  E=-2.967351D-01

 Vector    8  Occ=0.000000D+00  E=-1.404719D-01

 Vector    9  Occ=0.000000D+00  E=-1.404719D-01

 Vector   10  Occ=0.000000D+00  E= 1.972456D-03

 Vector   11  Occ=0.000000D+00  E= 4.097248D-02

 Vector   12  Occ=0.000000D+00  E= 4.471671D-02

 Vector   13  Occ=0.000000D+00  E= 5.939836D-02

 Vector   14  Occ=0.000000D+00  E= 5.939836D-02

 Vector   15  Occ=0.000000D+00  E= 1.122129D-01

 Vector   16  Occ=0.000000D+00  E= 1.704040D-01

 Vector   17  Occ=0.000000D+00  E= 1.704040D-01

 Vector   18  Occ=0.000000D+00  E= 2.049471D-01

 Vector   19  Occ=0.000000D+00  E= 2.049486D-01

 Vector   20  Occ=0.000000D+00  E= 2.468629D-01

 Vector   21  Occ=0.000000D+00  E= 2.642671D-01

 Vector   22  Occ=0.000000D+00  E= 2.846179D-01

 Vector   23  Occ=0.000000D+00  E= 2.846179D-01

 Vector   24  Occ=0.000000D+00  E= 3.884582D-01

 Vector   25  Occ=0.000000D+00  E= 4.558429D-01

 Vector   26  Occ=0.000000D+00  E= 4.594042D-01

 Vector   27  Occ=0.000000D+00  E= 4.594042D-01

 Vector   28  Occ=0.000000D+00  E= 7.013164D-01

 Vector   29  Occ=0.000000D+00  E= 8.595606D-01

 Vector   30  Occ=0.000000D+00  E= 8.595606D-01

 Vector   31  Occ=0.000000D+00  E= 8.893097D-01

 Vector   32  Occ=0.000000D+00  E= 8.895164D-01

 Vector   33  Occ=0.000000D+00  E= 8.895249D-01

 Vector   34  Occ=0.000000D+00  E= 9.572169D-01

 Vector   35  Occ=0.000000D+00  E= 9.572169D-01

 Vector   36  Occ=0.000000D+00  E= 1.074763D+00

 Vector   37  Occ=0.000000D+00  E= 1.154925D+00

 Vector   38  Occ=0.000000D+00  E= 1.335652D+00

 Vector   39  Occ=0.000000D+00  E= 1.335652D+00

 Vector   40  Occ=0.000000D+00  E= 1.361322D+00

 Vector   41  Occ=0.000000D+00  E= 1.361322D+00

 Vector   42  Occ=0.000000D+00  E= 1.437807D+00

 Vector   43  Occ=0.000000D+00  E= 1.437807D+00

 Vector   44  Occ=0.000000D+00  E= 1.707366D+00

 Vector   45  Occ=0.000000D+00  E= 1.954661D+00

 Vector   46  Occ=0.000000D+00  E= 1.954661D+00

 Vector   47  Occ=0.000000D+00  E= 1.973365D+00

 Vector   48  Occ=0.000000D+00  E= 2.438763D+00

 Vector   49  Occ=0.000000D+00  E= 2.544411D+00

 Vector   50  Occ=0.000000D+00  E= 2.544411D+00

 Vector   51  Occ=0.000000D+00  E= 2.685610D+00

 Vector   52  Occ=0.000000D+00  E= 3.129844D+00

 Vector   53  Occ=0.000000D+00  E= 3.129844D+00

 Vector   54  Occ=0.000000D+00  E= 3.298447D+00

 Vector   55  Occ=0.000000D+00  E= 3.546012D+00

 Vector   56  Occ=0.000000D+00  E= 3.546012D+00

 Vector   57  Occ=0.000000D+00  E= 4.018597D+00

 Vector   58  Occ=0.000000D+00  E= 4.018601D+00

 Vector   59  Occ=0.000000D+00  E= 4.091751D+00

 Vector   60  Occ=0.000000D+00  E= 4.307467D+00

 Vector   61  Occ=0.000000D+00  E= 4.307467D+00

 Vector   62  Occ=0.000000D+00  E= 4.561719D+00

 Vector   63  Occ=0.000000D+00  E= 4.996839D+00

 Vector   64  Occ=0.000000D+00  E= 8.638691D+00

 Vector   65  Occ=0.000000D+00  E= 8.831713D+00

 Vector   66  Occ=0.000000D+00  E= 8.831713D+00

 Vector   67  Occ=0.000000D+00  E= 9.763689D+00

 Vector   68  Occ=0.000000D+00  E= 1.453880D+01

 Vector   69  Occ=0.000000D+00  E= 1.453880D+01

 Vector   70  Occ=0.000000D+00  E= 1.475193D+01

 Vector   71  Occ=0.000000D+00  E= 2.126176D+01

 Vector   72  Occ=0.000000D+00  E= 1.886277D+02

     Multipole analysis of the density
     ---------------------------------

     L   x y z        total         alpha         beta         nuclear
     -   - - -        -----         -----         ----         -------
     0   0 0 0     -0.000000     -9.000000     -7.000000     16.000000

     1   1 0 0     -0.000000     -0.000000     -0.000000      0.000000
     1   0 1 0     -0.000000     -0.000000      0.000000      0.000000
     1   0 0 1      0.180773      0.125370      0.055403      0.000000

     2   2 0 0    -10.633132     -7.933265     -2.699867      0.000000
     2   1 1 0     -0.000000     -0.000000     -0.000000      0.000000
     2   1 0 1     -0.000000     -0.000000      0.000000      0.000000
     2   0 2 0    -10.633132     -7.933265     -2.699867      0.000000
     2   0 1 1     -0.000000     -0.000000     -0.000000      0.000000

 Total times  cpu:        1.8s     wall:        3.0s
