 Output coordinates in angstroms (scale by  1.889725989 to convert to a.u.)

  No.       Tag          Charge          X              Y              Z
 ---- ---------------- ---------- -------------- -------------- --------------
    1 P                   15.0000    -0.08328059     0.00000000    -0.07934294
    2 H                    1.0000    -0.08328059     0.00000000     1.33808706
    3 H                    1.0000     1.33248941     0.00000000    -0.14794294

         Total DFT energy =     -342.176904162433

                       DFT Final Molecular Orbital Analysis
                       ------------------------------------

 Vector    1  Occ=2.000000D+00  E=-7.697599D+01

 Vector   12  Occ=0.000000D+00  E=-1.640816D-01

 Vector   13  Occ=0.000000D+00  E=-1.258514D-01

 Vector   14  Occ=0.000000D+00  E=-1.244919D-01

 Vector   15  Occ=0.000000D+00  E=-1.207225D-01

 Vector   16  Occ=0.000000D+00  E=-1.186426D-01

 Vector   17  Occ=0.000000D+00  E=-1.119666D-01

 Vector   18  Occ=0.000000D+00  E=-1.071297D-01

 Vector   19  Occ=0.000000D+00  E=-4.460692D-02

 Vector   20  Occ=0.000000D+00  E=-4.407537D-02

 Vector   21  Occ=0.000000D+00  E= 3.488124D-02

 Vector   22  Occ=0.000000D+00  E= 5.403974D-02

 Vector   23  Occ=0.000000D+00  E= 6.565471D-02

 Vector   24  Occ=0.000000D+00  E= 7.025837D-02

 Vector   25  Occ=0.000000D+00  E= 1.218069D-01

 Vector   26  Occ=0.000000D+00  E= 1.539561D-01

 Vector   27  Occ=0.000000D+00  E= 1.978030D-01

 Vector   28  Occ=0.000000D+00  E= 2.030256D-01

 Vector   29  Occ=0.000000D+00  E= 2.080609D-01

 Vector   30  Occ=0.000000D+00  E= 2.438136D-01

 Vector   31  Occ=0.000000D+00  E= 2.826037D-01

 Vector   32  Occ=0.000000D+00  E= 2.852675D-01

 Vector   33  Occ=0.000000D+00  E= 4.674254D-01

 Vector   34  Occ=0.000000D+00  E= 5.038917D-01

 Vector   35  Occ=0.000000D+00  E= 5.104824D-01

 Vector   36  Occ=0.000000D+00  E= 5.176756D-01

 Vector   37  Occ=0.000000D+00  E= 5.264686D-01

 Vector   38  Occ=0.000000D+00  E= 6.066880D-01

 Vector   39  Occ=0.000000D+00  E= 6.142063D-01

 Vector   40  Occ=0.000000D+00  E= 6.716504D-01

 Vector   41  Occ=0.000000D+00  E= 7.521234D-01

 Vector   42  Occ=0.000000D+00  E= 8.368209D-01

 Vector   43  Occ=0.000000D+00  E= 9.009745D-01

 Vector   44  Occ=0.000000D+00  E= 9.727190D-01

 Vector   45  Occ=0.000000D+00  E= 1.069347D+00

 Vector   46  Occ=0.000000D+00  E= 1.093671D+00

 Vector   47  Occ=0.000000D+00  E= 1.098345D+00

 Vector   48  Occ=0.000000D+00  E= 1.111995D+00

 Vector   49  Occ=0.000000D+00  E= 1.356195D+00

 Vector   50  Occ=0.000000D+00  E= 1.391796D+00

 Vector   51  Occ=0.000000D+00  E= 1.590161D+00

 Vector   52  Occ=0.000000D+00  E= 1.614849D+00

 Vector   53  Occ=0.000000D+00  E= 1.635499D+00

 Vector   54  Occ=0.000000D+00  E= 1.677704D+00

 Vector   55  Occ=0.000000D+00  E= 1.794983D+00

 Vector   56  Occ=0.000000D+00  E= 1.821838D+00

 Vector   57  Occ=0.000000D+00  E= 2.112710D+00

 Vector   58  Occ=0.000000D+00  E= 2.195972D+00

 Vector   59  Occ=0.000000D+00  E= 2.236451D+00

 Vector   60  Occ=0.000000D+00  E= 2.357700D+00

 Vector   61  Occ=0.000000D+00  E= 2.395882D+00

 Vector   62  Occ=0.000000D+00  E= 2.736212D+00

 Vector   63  Occ=0.000000D+00  E= 2.827504D+00

 Vector   64  Occ=0.000000D+00  E= 2.912513D+00

 Vector   65  Occ=0.000000D+00  E= 2.936987D+00

 Vector   66  Occ=0.000000D+00  E= 3.014873D+00

 Vector   67  Occ=0.000000D+00  E= 3.191677D+00

 Vector   68  Occ=0.000000D+00  E= 3.212062D+00

 Vector   69  Occ=0.000000D+00  E= 3.214352D+00

 Vector   70  Occ=0.000000D+00  E= 3.266222D+00

 Vector   71  Occ=0.000000D+00  E= 3.755245D+00

 Vector   72  Occ=0.000000D+00  E= 3.790244D+00

 Vector   73  Occ=0.000000D+00  E= 3.933996D+00

 Vector   74  Occ=0.000000D+00  E= 3.964977D+00

 Vector   75  Occ=0.000000D+00  E= 4.146687D+00

 Vector   76  Occ=0.000000D+00  E= 4.256506D+00

 Vector   77  Occ=0.000000D+00  E= 4.371286D+00

 Vector   78  Occ=0.000000D+00  E= 4.412441D+00

 Vector   79  Occ=0.000000D+00  E= 5.039116D+00

 Vector   80  Occ=0.000000D+00  E= 8.271259D+00

 Vector   81  Occ=0.000000D+00  E= 8.394041D+00

 Vector   82  Occ=0.000000D+00  E= 8.421012D+00

 Vector   83  Occ=0.000000D+00  E= 8.440732D+00

 Vector   84  Occ=0.000000D+00  E= 8.553529D+00

 Vector   85  Occ=0.000000D+00  E= 9.185533D+00

 Vector   86  Occ=0.000000D+00  E= 9.330388D+00

 Vector   87  Occ=0.000000D+00  E= 1.415717D+01

 Vector   88  Occ=0.000000D+00  E= 1.438182D+01

 Vector   89  Occ=0.000000D+00  E= 1.441187D+01

 Vector   90  Occ=0.000000D+00  E= 2.091786D+01

 Vector   91  Occ=0.000000D+00  E= 1.882978D+02

     Multipole analysis of the density
     ---------------------------------

     L   x y z        total         alpha         beta         nuclear
     -   - - -        -----         -----         ----         -------
     0   0 0 0      1.000000     -8.000000     -8.000000     17.000000

     1   1 0 0      0.242586      0.121293      0.121293      0.000000
     1   0 1 0      0.000000      0.000000      0.000000      0.000000
     1   0 0 1      0.231116      0.115558      0.115558     -0.000000

     2   2 0 0     -7.935181     -7.335994     -7.335994      6.736808
     2   1 1 0     -0.000000     -0.000000     -0.000000      0.000000
     2   1 0 1     -0.543059      0.102456      0.102456     -0.747971
     2   0 2 0     -6.754857     -3.377429     -3.377429      0.000000
     2   0 1 1     -0.000000     -0.000000     -0.000000      0.000000

 Total times  cpu:        2.0s     wall:        3.1s
