 Output coordinates in angstroms (scale by  1.889725989 to convert to a.u.)

  No.       Tag          Charge          X              Y              Z
 ---- ---------------- ---------- -------------- -------------- --------------
    1 P                   15.0000     0.00000000     0.00000000    -0.11565765
    2 H                    1.0000     1.02013000     0.00000000     0.86743235
    3 H                    1.0000    -1.02013000     0.00000000     0.86743235

         Total DFT energy =     -342.543857227646

                    DFT Final Alpha Molecular Orbital Analysis
                    ------------------------------------------

 Vector    1  Occ=1.000000D+00  E=-7.659527D+01

 Vector   12  Occ=0.000000D+00  E= 3.610809D-02

 Vector   13  Occ=0.000000D+00  E= 4.145526D-02

 Vector   14  Occ=0.000000D+00  E= 5.521543D-02

 Vector   15  Occ=0.000000D+00  E= 7.185394D-02

 Vector   16  Occ=0.000000D+00  E= 9.813401D-02

 Vector   17  Occ=0.000000D+00  E= 1.137940D-01

 Vector   18  Occ=0.000000D+00  E= 1.428974D-01

 Vector   19  Occ=0.000000D+00  E= 1.677268D-01

 Vector   20  Occ=0.000000D+00  E= 1.721968D-01

 Vector   21  Occ=0.000000D+00  E= 2.462706D-01

 Vector   22  Occ=0.000000D+00  E= 2.538247D-01

 Vector   23  Occ=0.000000D+00  E= 2.589088D-01

 Vector   24  Occ=0.000000D+00  E= 2.807266D-01

 Vector   25  Occ=0.000000D+00  E= 3.215945D-01

 Vector   26  Occ=0.000000D+00  E= 3.912276D-01

 Vector   27  Occ=0.000000D+00  E= 4.164225D-01

 Vector   28  Occ=0.000000D+00  E= 4.220586D-01

 Vector   29  Occ=0.000000D+00  E= 4.431991D-01

 Vector   30  Occ=0.000000D+00  E= 4.833906D-01

 Vector   31  Occ=0.000000D+00  E= 5.208566D-01

 Vector   32  Occ=0.000000D+00  E= 5.252728D-01

 Vector   33  Occ=0.000000D+00  E= 7.097381D-01

 Vector   34  Occ=0.000000D+00  E= 7.280661D-01

 Vector   35  Occ=0.000000D+00  E= 8.328876D-01

 Vector   36  Occ=0.000000D+00  E= 8.528085D-01

 Vector   37  Occ=0.000000D+00  E= 8.599096D-01

 Vector   38  Occ=0.000000D+00  E= 8.846114D-01

 Vector   39  Occ=0.000000D+00  E= 8.994870D-01

 Vector   40  Occ=0.000000D+00  E= 9.557988D-01

 Vector   41  Occ=0.000000D+00  E= 1.037345D+00

 Vector   42  Occ=0.000000D+00  E= 1.121392D+00

 Vector   43  Occ=0.000000D+00  E= 1.185075D+00

 Vector   44  Occ=0.000000D+00  E= 1.312039D+00

 Vector   45  Occ=0.000000D+00  E= 1.389586D+00

 Vector   46  Occ=0.000000D+00  E= 1.416637D+00

 Vector   47  Occ=0.000000D+00  E= 1.437801D+00

 Vector   48  Occ=0.000000D+00  E= 1.444008D+00

 Vector   49  Occ=0.000000D+00  E= 1.662852D+00

 Vector   50  Occ=0.000000D+00  E= 1.698130D+00

 Vector   51  Occ=0.000000D+00  E= 1.869830D+00

 Vector   52  Occ=0.000000D+00  E= 1.889819D+00

 Vector   53  Occ=0.000000D+00  E= 1.932800D+00

 Vector   54  Occ=0.000000D+00  E= 1.977750D+00

 Vector   55  Occ=0.000000D+00  E= 2.079872D+00

 Vector   56  Occ=0.000000D+00  E= 2.109369D+00

 Vector   57  Occ=0.000000D+00  E= 2.404725D+00

 Vector   58  Occ=0.000000D+00  E= 2.530941D+00

 Vector   59  Occ=0.000000D+00  E= 2.546604D+00

 Vector   60  Occ=0.000000D+00  E= 2.671607D+00

 Vector   61  Occ=0.000000D+00  E= 2.706669D+00

 Vector   62  Occ=0.000000D+00  E= 3.033716D+00

 Vector   63  Occ=0.000000D+00  E= 3.123943D+00

 Vector   64  Occ=0.000000D+00  E= 3.215525D+00

 Vector   65  Occ=0.000000D+00  E= 3.233373D+00

 Vector   66  Occ=0.000000D+00  E= 3.358207D+00

 Vector   67  Occ=0.000000D+00  E= 3.516687D+00

 Vector   68  Occ=0.000000D+00  E= 3.531561D+00

 Vector   69  Occ=0.000000D+00  E= 3.535596D+00

 Vector   70  Occ=0.000000D+00  E= 3.559563D+00

 Vector   71  Occ=0.000000D+00  E= 4.077183D+00

 Vector   72  Occ=0.000000D+00  E= 4.100804D+00

 Vector   73  Occ=0.000000D+00  E= 4.301440D+00

 Vector   74  Occ=0.000000D+00  E= 4.325215D+00

 Vector   75  Occ=0.000000D+00  E= 4.487187D+00

 Vector   76  Occ=0.000000D+00  E= 4.560257D+00

 Vector   77  Occ=0.000000D+00  E= 4.699838D+00

 Vector   78  Occ=0.000000D+00  E= 4.754396D+00

 Vector   79  Occ=0.000000D+00  E= 5.387544D+00

 Vector   80  Occ=0.000000D+00  E= 8.644702D+00

 Vector   81  Occ=0.000000D+00  E= 8.729768D+00

 Vector   82  Occ=0.000000D+00  E= 8.758679D+00

 Vector   83  Occ=0.000000D+00  E= 8.780223D+00

 Vector   84  Occ=0.000000D+00  E= 8.891537D+00

 Vector   85  Occ=0.000000D+00  E= 9.550961D+00

 Vector   86  Occ=0.000000D+00  E= 9.702000D+00

 Vector   87  Occ=0.000000D+00  E= 1.454832D+01

 Vector   88  Occ=0.000000D+00  E= 1.475655D+01

 Vector   89  Occ=0.000000D+00  E= 1.478160D+01

 Vector   90  Occ=0.000000D+00  E= 2.129470D+01

 Vector   91  Occ=0.000000D+00  E= 1.886811D+02

     Multipole analysis of the density
     ---------------------------------

     L   x y z        total         alpha         beta         nuclear
     -   - - -        -----         -----         ----         -------
     0   0 0 0     -0.000000     -9.000000     -8.000000     17.000000

     1   1 0 0      0.000000     -0.000000      0.000000      0.000000
     1   0 1 0     -0.000000     -0.000000      0.000000      0.000000
     1   0 0 1      0.230670      0.151572      0.079098      0.000000

     2   2 0 0    -10.382773     -9.465132     -8.350206      7.432565
     2   1 1 0     -0.000000     -0.000000     -0.000000      0.000000
     2   1 0 1     -0.000000     -0.000000      0.000000      0.000000
     2   0 2 0    -11.205453     -7.670314     -3.535139      0.000000
     2   0 1 1     -0.000000     -0.000000     -0.000000      0.000000

 Total times  cpu:        3.7s     wall:        4.7s
