 Output coordinates in angstroms (scale by  1.889725989 to convert to a.u.)

  No.       Tag          Charge          X              Y              Z
 ---- ---------------- ---------- -------------- -------------- --------------
    1 S                   16.0000     0.00000000     0.00000000     0.00000000

         Total DFT energy =     -397.755184585024

                    DFT Final Alpha Molecular Orbital Analysis
                    ------------------------------------------

 Vector    1  Occ=1.000000D+00  E=-8.884448D+01

 Vector   27  Occ=0.000000D+00  E= 5.366470D-01

 Vector   28  Occ=0.000000D+00  E= 7.588237D-01

 Vector   29  Occ=0.000000D+00  E= 7.588237D-01

 Vector   30  Occ=0.000000D+00  E= 7.588237D-01

 Vector   31  Occ=0.000000D+00  E= 9.016204D-01

 Vector   32  Occ=0.000000D+00  E= 1.170445D+00

 Vector   33  Occ=0.000000D+00  E= 1.170445D+00

 Vector   34  Occ=0.000000D+00  E= 1.170445D+00

 Vector   35  Occ=0.000000D+00  E= 1.170445D+00

 Vector   36  Occ=0.000000D+00  E= 1.170445D+00

 Vector   37  Occ=0.000000D+00  E= 1.170445D+00

 Vector   38  Occ=0.000000D+00  E= 1.170445D+00

 Vector   39  Occ=0.000000D+00  E= 2.577107D+00

 Vector   40  Occ=0.000000D+00  E= 2.577107D+00

 Vector   41  Occ=0.000000D+00  E= 2.577107D+00

 Vector   42  Occ=0.000000D+00  E= 3.340537D+00

 Vector   43  Occ=0.000000D+00  E= 4.093790D+00

 Vector   44  Occ=0.000000D+00  E= 4.093790D+00

 Vector   45  Occ=0.000000D+00  E= 4.093790D+00

 Vector   46  Occ=0.000000D+00  E= 4.093790D+00

 Vector   47  Occ=0.000000D+00  E= 4.093790D+00

 Vector   48  Occ=0.000000D+00  E= 9.603447D+00

 Vector   49  Occ=0.000000D+00  E= 1.797752D+01

 Vector   50  Occ=0.000000D+00  E= 1.797752D+01

 Vector   51  Occ=0.000000D+00  E= 1.797752D+01

 Vector   52  Occ=0.000000D+00  E= 2.436729D+01

 Vector   53  Occ=0.000000D+00  E= 2.186640D+02

 Vector    1  Occ=1.000000D+00  E=-8.882630D+01

 Vector    2  Occ=1.000000D+00  E=-8.203968D+00

 Vector    3  Occ=1.000000D+00  E=-6.177681D+00

 Vector    4  Occ=1.000000D+00  E=-6.177681D+00

 Vector    5  Occ=1.000000D+00  E=-6.177681D+00

 Vector    6  Occ=1.000000D+00  E=-9.260952D-01

 Vector    7  Occ=0.000000D+00  E=-5.334421D-01

 Vector    8  Occ=0.000000D+00  E=-5.334421D-01

 Vector    9  Occ=0.000000D+00  E=-5.334421D-01

 Vector   10  Occ=0.000000D+00  E=-1.630232D-01

 Vector   11  Occ=0.000000D+00  E=-9.619730D-02

 Vector   12  Occ=0.000000D+00  E=-9.619730D-02

 Vector   13  Occ=0.000000D+00  E=-9.619730D-02

 Vector   14  Occ=0.000000D+00  E=-5.809154D-02

 Vector   15  Occ=0.000000D+00  E=-5.809154D-02

 Vector   16  Occ=0.000000D+00  E=-5.809154D-02

 Vector   17  Occ=0.000000D+00  E=-5.809154D-02

 Vector   18  Occ=0.000000D+00  E=-5.809154D-02

 Vector   19  Occ=0.000000D+00  E= 1.062093D-01

 Vector   20  Occ=0.000000D+00  E= 1.062093D-01

 Vector   21  Occ=0.000000D+00  E= 1.062093D-01

 Vector   22  Occ=0.000000D+00  E= 1.254960D-01

 Vector   23  Occ=0.000000D+00  E= 6.292834D-01

 Vector   24  Occ=0.000000D+00  E= 6.292834D-01

 Vector   25  Occ=0.000000D+00  E= 6.292834D-01

 Vector   26  Occ=0.000000D+00  E= 6.292834D-01

 Vector   27  Occ=0.000000D+00  E= 6.292834D-01

 Vector   28  Occ=0.000000D+00  E= 8.201317D-01

 Vector   29  Occ=0.000000D+00  E= 8.201317D-01

 Vector   30  Occ=0.000000D+00  E= 8.201317D-01

 Vector   31  Occ=0.000000D+00  E= 9.648851D-01

 Vector   32  Occ=0.000000D+00  E= 1.283358D+00

 Vector   33  Occ=0.000000D+00  E= 1.283358D+00

 Vector   34  Occ=0.000000D+00  E= 1.283358D+00

 Vector   35  Occ=0.000000D+00  E= 1.283358D+00

 Vector   36  Occ=0.000000D+00  E= 1.283358D+00

 Vector   37  Occ=0.000000D+00  E= 1.283358D+00

 Vector   38  Occ=0.000000D+00  E= 1.283358D+00

 Vector   39  Occ=0.000000D+00  E= 2.633427D+00

 Vector   40  Occ=0.000000D+00  E= 2.633427D+00

 Vector   41  Occ=0.000000D+00  E= 2.633427D+00

 Vector   42  Occ=0.000000D+00  E= 3.398239D+00

 Vector   43  Occ=0.000000D+00  E= 4.135300D+00

 Vector   44  Occ=0.000000D+00  E= 4.135300D+00

 Vector   45  Occ=0.000000D+00  E= 4.135300D+00

 Vector   46  Occ=0.000000D+00  E= 4.135300D+00

 Vector   47  Occ=0.000000D+00  E= 4.135300D+00

 Vector   48  Occ=0.000000D+00  E= 9.660995D+00

 Vector   49  Occ=0.000000D+00  E= 1.801526D+01

 Vector   50  Occ=0.000000D+00  E= 1.801526D+01

 Vector   51  Occ=0.000000D+00  E= 1.801526D+01

 Vector   52  Occ=0.000000D+00  E= 2.441759D+01

 Vector   53  Occ=0.000000D+00  E= 2.186858D+02

 Total times  cpu:        2.0s     wall:        3.1s
