 Output coordinates in angstroms (scale by  1.889725989 to convert to a.u.)

  No.       Tag          Charge          X              Y              Z
 ---- ---------------- ---------- -------------- -------------- --------------
    1 S                   16.0000     0.00000000     0.00000000    -0.91009500
    2 S                   16.0000     0.00000000     0.00000000     0.91009500

         Total DFT energy =     -796.102167619261

                    DFT Final Alpha Molecular Orbital Analysis
                    ------------------------------------------

 Vector    1  Occ=1.000000D+00  E=-8.872374D+01

 Vector   27  Occ=0.000000D+00  E=-6.703846D-02

 Vector   28  Occ=0.000000D+00  E=-6.239562D-02

 Vector   29  Occ=0.000000D+00  E=-5.743280D-02

 Vector   30  Occ=0.000000D+00  E=-6.126410D-03

 Vector   31  Occ=0.000000D+00  E= 2.077687D-02

 Vector   32  Occ=0.000000D+00  E= 3.856696D-02

 Vector   33  Occ=0.000000D+00  E= 3.890324D-02

 Vector   34  Occ=0.000000D+00  E= 8.596385D-02

 Vector   35  Occ=0.000000D+00  E= 9.732844D-02

 Vector   36  Occ=0.000000D+00  E= 1.066994D-01

 Vector   37  Occ=0.000000D+00  E= 1.244636D-01

 Vector   38  Occ=0.000000D+00  E= 1.318396D-01

 Vector   39  Occ=0.000000D+00  E= 1.411715D-01

 Vector   40  Occ=0.000000D+00  E= 2.388100D-01

 Vector   41  Occ=0.000000D+00  E= 2.435521D-01

 Vector   42  Occ=0.000000D+00  E= 2.547223D-01

 Vector   43  Occ=0.000000D+00  E= 2.576185D-01

 Vector   44  Occ=0.000000D+00  E= 4.763186D-01

 Vector   45  Occ=0.000000D+00  E= 5.724297D-01

 Vector   46  Occ=0.000000D+00  E= 5.850473D-01

 Vector   47  Occ=0.000000D+00  E= 6.013797D-01

 Vector   48  Occ=0.000000D+00  E= 6.412513D-01

 Vector   49  Occ=0.000000D+00  E= 6.424115D-01

 Vector   50  Occ=0.000000D+00  E= 6.987783D-01

 Vector   51  Occ=0.000000D+00  E= 6.989961D-01

 Vector   52  Occ=0.000000D+00  E= 7.552003D-01

 Vector   53  Occ=0.000000D+00  E= 7.724442D-01

 Vector   54  Occ=0.000000D+00  E= 7.995484D-01

 Vector   55  Occ=0.000000D+00  E= 8.138451D-01

 Vector   56  Occ=0.000000D+00  E= 8.309755D-01

 Vector   57  Occ=0.000000D+00  E= 8.831655D-01

 Vector   58  Occ=0.000000D+00  E= 8.911866D-01

 Vector   59  Occ=0.000000D+00  E= 9.103315D-01

 Vector   60  Occ=0.000000D+00  E= 9.928385D-01

 Vector   61  Occ=0.000000D+00  E= 1.104364D+00

 Vector   62  Occ=0.000000D+00  E= 1.104464D+00

 Vector   63  Occ=0.000000D+00  E= 1.182116D+00

 Vector   64  Occ=0.000000D+00  E= 1.243355D+00

 Vector   65  Occ=0.000000D+00  E= 1.243437D+00

 Vector   66  Occ=0.000000D+00  E= 1.271919D+00

 Vector   67  Occ=0.000000D+00  E= 1.333777D+00

 Vector   68  Occ=0.000000D+00  E= 1.357028D+00

 Vector   69  Occ=0.000000D+00  E= 1.368008D+00

 Vector   70  Occ=0.000000D+00  E= 1.368020D+00

 Vector   71  Occ=0.000000D+00  E= 1.628180D+00

 Vector   72  Occ=0.000000D+00  E= 1.628187D+00

 Vector   73  Occ=0.000000D+00  E= 1.868099D+00

 Vector   74  Occ=0.000000D+00  E= 1.924141D+00

 Vector   75  Occ=0.000000D+00  E= 1.989192D+00

 Vector   76  Occ=0.000000D+00  E= 2.011752D+00

 Vector   77  Occ=0.000000D+00  E= 2.641967D+00

 Vector   78  Occ=0.000000D+00  E= 2.664166D+00

 Vector   79  Occ=0.000000D+00  E= 2.732332D+00

 Vector   80  Occ=0.000000D+00  E= 2.735095D+00

 Vector   81  Occ=0.000000D+00  E= 2.754651D+00

 Vector   82  Occ=0.000000D+00  E= 3.059752D+00

 Vector   83  Occ=0.000000D+00  E= 3.412134D+00

 Vector   84  Occ=0.000000D+00  E= 3.684309D+00

 Vector   85  Occ=0.000000D+00  E= 4.147325D+00

 Vector   86  Occ=0.000000D+00  E= 4.162624D+00

 Vector   87  Occ=0.000000D+00  E= 4.191188D+00

 Vector   88  Occ=0.000000D+00  E= 4.193134D+00

 Vector   89  Occ=0.000000D+00  E= 4.246645D+00

 Vector   90  Occ=0.000000D+00  E= 4.246868D+00

 Vector   91  Occ=0.000000D+00  E= 4.248080D+00

 Vector   92  Occ=0.000000D+00  E= 4.525510D+00

 Vector   93  Occ=0.000000D+00  E= 4.542529D+00

 Vector   94  Occ=0.000000D+00  E= 5.654672D+00

 Vector   95  Occ=0.000000D+00  E= 9.805397D+00

 Vector   96  Occ=0.000000D+00  E= 9.824345D+00

 Vector   97  Occ=0.000000D+00  E= 1.809391D+01

 Vector   98  Occ=0.000000D+00  E= 1.810707D+01

 Vector   99  Occ=0.000000D+00  E= 1.813382D+01

 Vector  100  Occ=0.000000D+00  E= 1.814702D+01

 Vector  101  Occ=0.000000D+00  E= 1.829724D+01

 Vector  102  Occ=0.000000D+00  E= 1.831550D+01

 Vector  103  Occ=0.000000D+00  E= 2.455696D+01

 Vector  104  Occ=0.000000D+00  E= 2.456729D+01

 Vector  105  Occ=0.000000D+00  E= 2.188801D+02

 Vector  106  Occ=0.000000D+00  E= 2.188868D+02

     Multipole analysis of the density
     ---------------------------------

     L   x y z        total         alpha         beta         nuclear
     -   - - -        -----         -----         ----         -------
     0   0 0 0      1.000000    -16.000000    -15.000000     32.000000

     1   1 0 0     -0.000000     -0.000000      0.000000      0.000000
     1   0 1 0      0.000000      0.000000     -0.000000      0.000000
     1   0 0 1     -0.000000     -0.000000     -0.000000      0.000000

     2   2 0 0    -16.138324     -9.128485     -7.009839      0.000000
     2   1 1 0      0.695677      0.779889     -0.084212      0.000000
     2   1 0 1     -0.000000     -0.000000     -0.000000      0.000000
     2   0 2 0    -15.443539     -8.349596     -7.093943      0.000000
     2   0 1 1     -0.000000     -0.000000     -0.000000      0.000000

 Total times  cpu:        4.2s     wall:        5.5s
