 Output coordinates in angstroms (scale by  1.889725989 to convert to a.u.)

  No.       Tag          Charge          X              Y              Z
 ---- ---------------- ---------- -------------- -------------- --------------
    1 S                   16.0000     0.00000000     0.00000000    -0.94629500
    2 S                   16.0000     0.00000000     0.00000000     0.94629500

         Total DFT energy =     -796.450410379076

                    DFT Final Alpha Molecular Orbital Analysis
                    ------------------------------------------

 Vector    1  Occ=1.000000D+00  E=-8.840222D+01

 Vector   27  Occ=0.000000D+00  E= 1.578111D-01

 Vector   28  Occ=0.000000D+00  E= 1.578111D-01

 Vector   29  Occ=0.000000D+00  E= 1.736130D-01

 Vector   30  Occ=0.000000D+00  E= 1.736130D-01

 Vector   31  Occ=0.000000D+00  E= 2.165833D-01

 Vector   32  Occ=0.000000D+00  E= 2.526063D-01

 Vector   33  Occ=0.000000D+00  E= 2.945290D-01

 Vector   34  Occ=0.000000D+00  E= 2.945290D-01

 Vector   35  Occ=0.000000D+00  E= 2.977354D-01

 Vector   36  Occ=0.000000D+00  E= 2.977354D-01

 Vector   37  Occ=0.000000D+00  E= 3.154620D-01

 Vector   38  Occ=0.000000D+00  E= 3.260523D-01

 Vector   39  Occ=0.000000D+00  E= 3.260523D-01

 Vector   40  Occ=0.000000D+00  E= 4.581594D-01

 Vector   41  Occ=0.000000D+00  E= 4.688399D-01

 Vector   42  Occ=0.000000D+00  E= 4.776427D-01

 Vector   43  Occ=0.000000D+00  E= 4.776427D-01

 Vector   44  Occ=0.000000D+00  E= 6.715690D-01

 Vector   45  Occ=0.000000D+00  E= 8.454527D-01

 Vector   46  Occ=0.000000D+00  E= 8.838912D-01

 Vector   47  Occ=0.000000D+00  E= 8.838912D-01

 Vector   48  Occ=0.000000D+00  E= 9.400381D-01

 Vector   49  Occ=0.000000D+00  E= 9.400386D-01

 Vector   50  Occ=0.000000D+00  E= 9.872390D-01

 Vector   51  Occ=0.000000D+00  E= 9.872394D-01

 Vector   52  Occ=0.000000D+00  E= 1.025730D+00

 Vector   53  Occ=0.000000D+00  E= 1.025730D+00

 Vector   54  Occ=0.000000D+00  E= 1.036192D+00

 Vector   55  Occ=0.000000D+00  E= 1.075103D+00

 Vector   56  Occ=0.000000D+00  E= 1.075103D+00

 Vector   57  Occ=0.000000D+00  E= 1.127698D+00

 Vector   58  Occ=0.000000D+00  E= 1.151847D+00

 Vector   59  Occ=0.000000D+00  E= 1.151847D+00

 Vector   60  Occ=0.000000D+00  E= 1.246090D+00

 Vector   61  Occ=0.000000D+00  E= 1.410014D+00

 Vector   62  Occ=0.000000D+00  E= 1.410795D+00

 Vector   63  Occ=0.000000D+00  E= 1.410795D+00

 Vector   64  Occ=0.000000D+00  E= 1.517357D+00

 Vector   65  Occ=0.000000D+00  E= 1.560066D+00

 Vector   66  Occ=0.000000D+00  E= 1.560066D+00

 Vector   67  Occ=0.000000D+00  E= 1.591964D+00

 Vector   68  Occ=0.000000D+00  E= 1.591964D+00

 Vector   69  Occ=0.000000D+00  E= 1.663738D+00

 Vector   70  Occ=0.000000D+00  E= 1.663738D+00

 Vector   71  Occ=0.000000D+00  E= 1.891045D+00

 Vector   72  Occ=0.000000D+00  E= 1.891045D+00

 Vector   73  Occ=0.000000D+00  E= 2.123476D+00

 Vector   74  Occ=0.000000D+00  E= 2.205384D+00

 Vector   75  Occ=0.000000D+00  E= 2.263158D+00

 Vector   76  Occ=0.000000D+00  E= 2.263158D+00

 Vector   77  Occ=0.000000D+00  E= 2.945828D+00

 Vector   78  Occ=0.000000D+00  E= 2.945828D+00

 Vector   79  Occ=0.000000D+00  E= 2.980077D+00

 Vector   80  Occ=0.000000D+00  E= 3.031041D+00

 Vector   81  Occ=0.000000D+00  E= 3.031041D+00

 Vector   82  Occ=0.000000D+00  E= 3.335187D+00

 Vector   83  Occ=0.000000D+00  E= 3.696858D+00

 Vector   84  Occ=0.000000D+00  E= 3.972161D+00

 Vector   85  Occ=0.000000D+00  E= 4.477751D+00

 Vector   86  Occ=0.000000D+00  E= 4.477751D+00

 Vector   87  Occ=0.000000D+00  E= 4.514809D+00

 Vector   88  Occ=0.000000D+00  E= 4.514810D+00

 Vector   89  Occ=0.000000D+00  E= 4.517047D+00

 Vector   90  Occ=0.000000D+00  E= 4.557962D+00

 Vector   91  Occ=0.000000D+00  E= 4.557962D+00

 Vector   92  Occ=0.000000D+00  E= 4.770185D+00

 Vector   93  Occ=0.000000D+00  E= 4.770185D+00

 Vector   94  Occ=0.000000D+00  E= 5.758765D+00

 Vector   95  Occ=0.000000D+00  E= 1.009504D+01

 Vector   96  Occ=0.000000D+00  E= 1.015239D+01

 Vector   97  Occ=0.000000D+00  E= 1.841656D+01

 Vector   98  Occ=0.000000D+00  E= 1.841656D+01

 Vector   99  Occ=0.000000D+00  E= 1.846276D+01

 Vector  100  Occ=0.000000D+00  E= 1.846276D+01

 Vector  101  Occ=0.000000D+00  E= 1.859346D+01

 Vector  102  Occ=0.000000D+00  E= 1.863975D+01

 Vector  103  Occ=0.000000D+00  E= 2.487008D+01

 Vector  104  Occ=0.000000D+00  E= 2.487898D+01

 Vector  105  Occ=0.000000D+00  E= 2.191788D+02

 Vector  106  Occ=0.000000D+00  E= 2.192096D+02

     Multipole analysis of the density
     ---------------------------------

     L   x y z        total         alpha         beta         nuclear
     -   - - -        -----         -----         ----         -------
     0   0 0 0     -0.000000    -17.000000    -15.000000     32.000000

     1   1 0 0     -0.000000     -0.000000     -0.000000      0.000000
     1   0 1 0      0.000000      0.000000      0.000000      0.000000
     1   0 0 1      0.000000      0.000000      0.000000      0.000000

     2   2 0 0    -19.173562    -11.459237     -7.714325      0.000000
     2   1 1 0      0.000000     -0.000000      0.000000      0.000000
     2   1 0 1      0.000000     -0.000000      0.000000      0.000000
     2   0 2 0    -19.173562    -11.459237     -7.714325      0.000000
     2   0 1 1     -0.000000     -0.000000     -0.000000      0.000000

 Total times  cpu:        2.3s     wall:        3.5s
