 Output coordinates in angstroms (scale by  1.889725989 to convert to a.u.)

  No.       Tag          Charge          X              Y              Z
 ---- ---------------- ---------- -------------- -------------- --------------
    1 S                   16.0000     0.00000000     0.00000000    -0.08007412
    2 H                    1.0000     0.00000000     0.00000000     1.28118588

         Total DFT energy =     -398.401364689067

                    DFT Final Alpha Molecular Orbital Analysis
                    ------------------------------------------

 Vector    1  Occ=1.000000D+00  E=-8.879912D+01

 Vector   65  Occ=0.000000D+00  E= 8.200177D+00

 Vector   66  Occ=0.000000D+00  E= 8.938050D+00

 Vector   67  Occ=0.000000D+00  E= 9.730505D+00

 Vector   68  Occ=0.000000D+00  E= 1.802329D+01

 Vector   69  Occ=0.000000D+00  E= 1.802329D+01

 Vector   70  Occ=0.000000D+00  E= 1.821437D+01

 Vector   71  Occ=0.000000D+00  E= 2.445747D+01

 Vector   72  Occ=0.000000D+00  E= 2.187794D+02

 Vector    1  Occ=1.000000D+00  E=-8.878717D+01

 Vector    2  Occ=1.000000D+00  E=-8.167526D+00

 Vector    3  Occ=1.000000D+00  E=-6.143137D+00

 Vector    4  Occ=1.000000D+00  E=-6.141548D+00

 Vector    5  Occ=1.000000D+00  E=-6.141548D+00

 Vector    6  Occ=1.000000D+00  E=-9.822016D-01

 Vector    7  Occ=1.000000D+00  E=-6.968147D-01

 Vector    8  Occ=0.000000D+00  E=-5.247086D-01

 Vector    9  Occ=0.000000D+00  E=-5.247086D-01

 Vector   10  Occ=0.000000D+00  E=-2.723557D-01

 Vector   11  Occ=0.000000D+00  E=-1.699145D-01

 Vector   12  Occ=0.000000D+00  E=-1.206980D-01

 Vector   13  Occ=0.000000D+00  E=-1.072122D-01

 Vector   14  Occ=0.000000D+00  E=-1.072122D-01

 Vector   15  Occ=0.000000D+00  E=-9.080536D-02

 Vector   16  Occ=0.000000D+00  E=-9.080536D-02

 Vector   17  Occ=0.000000D+00  E=-4.877661D-02

 Vector   18  Occ=0.000000D+00  E=-4.877584D-02

 Vector   19  Occ=0.000000D+00  E=-4.255286D-02

 Vector   20  Occ=0.000000D+00  E= 5.399368D-02

 Vector   21  Occ=0.000000D+00  E= 8.675416D-02

 Vector   22  Occ=0.000000D+00  E= 1.055983D-01

 Vector   23  Occ=0.000000D+00  E= 1.055983D-01

 Vector   24  Occ=0.000000D+00  E= 2.165448D-01

 Vector   25  Occ=0.000000D+00  E= 2.274219D-01

 Vector   26  Occ=0.000000D+00  E= 2.274219D-01

 Vector   27  Occ=0.000000D+00  E= 2.320659D-01

 Vector   28  Occ=0.000000D+00  E= 5.145905D-01

 Vector   29  Occ=0.000000D+00  E= 6.310270D-01

 Vector   30  Occ=0.000000D+00  E= 6.310270D-01

 Vector   31  Occ=0.000000D+00  E= 6.488899D-01

 Vector   32  Occ=0.000000D+00  E= 6.488932D-01

 Vector   33  Occ=0.000000D+00  E= 6.732821D-01

 Vector   34  Occ=0.000000D+00  E= 8.257900D-01

 Vector   35  Occ=0.000000D+00  E= 8.257900D-01

 Vector   36  Occ=0.000000D+00  E= 9.152378D-01

 Vector   37  Occ=0.000000D+00  E= 1.060831D+00

 Vector   38  Occ=0.000000D+00  E= 1.263998D+00

 Vector   39  Occ=0.000000D+00  E= 1.263999D+00

 Vector   40  Occ=0.000000D+00  E= 1.270498D+00

 Vector   41  Occ=0.000000D+00  E= 1.270498D+00

 Vector   42  Occ=0.000000D+00  E= 1.302246D+00

 Vector   43  Occ=0.000000D+00  E= 1.302246D+00

 Vector   44  Occ=0.000000D+00  E= 1.600542D+00

 Vector   45  Occ=0.000000D+00  E= 1.743748D+00

 Vector   46  Occ=0.000000D+00  E= 1.743748D+00

 Vector   47  Occ=0.000000D+00  E= 1.802788D+00

 Vector   48  Occ=0.000000D+00  E= 2.243280D+00

 Vector   49  Occ=0.000000D+00  E= 2.648049D+00

 Vector   50  Occ=0.000000D+00  E= 2.648049D+00

 Vector   51  Occ=0.000000D+00  E= 2.805363D+00

 Vector   52  Occ=0.000000D+00  E= 2.805363D+00

 Vector   53  Occ=0.000000D+00  E= 2.823133D+00

 Vector   54  Occ=0.000000D+00  E= 3.354300D+00

 Vector   55  Occ=0.000000D+00  E= 3.354300D+00

 Vector   56  Occ=0.000000D+00  E= 3.486590D+00

 Vector   57  Occ=0.000000D+00  E= 3.904241D+00

 Vector   58  Occ=0.000000D+00  E= 4.165871D+00

 Vector   59  Occ=0.000000D+00  E= 4.165882D+00

 Vector   60  Occ=0.000000D+00  E= 4.302687D+00

 Vector   61  Occ=0.000000D+00  E= 4.447087D+00

 Vector   62  Occ=0.000000D+00  E= 4.447087D+00

 Vector   63  Occ=0.000000D+00  E= 5.445957D+00

 Vector   64  Occ=0.000000D+00  E= 8.475444D+00

 Vector   65  Occ=0.000000D+00  E= 8.475444D+00

 Vector   66  Occ=0.000000D+00  E= 9.424043D+00

 Vector   67  Occ=0.000000D+00  E= 9.833922D+00

 Vector   68  Occ=0.000000D+00  E= 1.805466D+01

 Vector   69  Occ=0.000000D+00  E= 1.805466D+01

 Vector   70  Occ=0.000000D+00  E= 1.823986D+01

 Vector   71  Occ=0.000000D+00  E= 2.450435D+01

 Vector   72  Occ=0.000000D+00  E= 2.187952D+02

     Multipole analysis of the density
     ---------------------------------

     L   x y z        total         alpha         beta         nuclear
     -   - - -        -----         -----         ----         -------
     0   0 0 0      1.000000     -9.000000     -7.000000     17.000000

     1   1 0 0      0.000000      0.000000     -0.000000      0.000000
     1   0 1 0      0.000000      0.000000      0.000000      0.000000
     1   0 0 1      0.429671      0.276785      0.152886      0.000000

     2   2 0 0     -7.537656     -5.478154     -2.059501      0.000000
     2   1 1 0      0.000000      0.000000      0.000000      0.000000
     2   1 0 1      0.000000     -0.000000      0.000000      0.000000
     2   0 2 0     -7.537656     -5.478154     -2.059501      0.000000
     2   0 1 1      0.000000      0.000000     -0.000000      0.000000

 Total times  cpu:        1.6s     wall:        2.5s
