 Output coordinates in angstroms (scale by  1.889725989 to convert to a.u.)

  No.       Tag          Charge          X              Y              Z
 ---- ---------------- ---------- -------------- -------------- --------------
    1 Si                  14.0000     0.00000000     0.00000000     0.00000000

         Total DFT energy =     -289.090638516399

                    DFT Final Alpha Molecular Orbital Analysis
                    ------------------------------------------

 Vector    1  Occ=1.000000D+00  E=-6.607304D+01

 Vector   27  Occ=0.000000D+00  E= 4.312897D-01

 Vector   28  Occ=0.000000D+00  E= 5.080676D-01

 Vector   29  Occ=0.000000D+00  E= 5.119672D-01

 Vector   30  Occ=0.000000D+00  E= 5.119673D-01

 Vector   31  Occ=0.000000D+00  E= 6.269264D-01

 Vector   32  Occ=0.000000D+00  E= 6.335692D-01

 Vector   33  Occ=0.000000D+00  E= 6.335692D-01

 Vector   34  Occ=0.000000D+00  E= 6.420622D-01

 Vector   35  Occ=0.000000D+00  E= 6.420622D-01

 Vector   36  Occ=0.000000D+00  E= 6.428269D-01

 Vector   37  Occ=0.000000D+00  E= 6.432080D-01

 Vector   38  Occ=0.000000D+00  E= 6.432080D-01

 Vector   39  Occ=0.000000D+00  E= 1.542243D+00

 Vector   40  Occ=0.000000D+00  E= 1.542243D+00

 Vector   41  Occ=0.000000D+00  E= 1.576009D+00

 Vector   42  Occ=0.000000D+00  E= 2.429829D+00

 Vector   43  Occ=0.000000D+00  E= 3.071855D+00

 Vector   44  Occ=0.000000D+00  E= 3.071855D+00

 Vector   45  Occ=0.000000D+00  E= 3.089511D+00

 Vector   46  Occ=0.000000D+00  E= 3.089511D+00

 Vector   47  Occ=0.000000D+00  E= 3.097214D+00

 Vector   48  Occ=0.000000D+00  E= 7.019835D+00

 Vector   49  Occ=0.000000D+00  E= 1.119525D+01

 Vector   50  Occ=0.000000D+00  E= 1.119525D+01

 Vector   51  Occ=0.000000D+00  E= 1.120497D+01

 Vector   52  Occ=0.000000D+00  E= 1.736220D+01

 Vector   53  Occ=0.000000D+00  E= 1.626113D+02

 Vector    1  Occ=1.000000D+00  E=-6.606911D+01

 Vector    2  Occ=1.000000D+00  E=-5.500520D+00

 Vector    3  Occ=1.000000D+00  E=-3.880785D+00

 Vector    4  Occ=1.000000D+00  E=-3.880785D+00

 Vector    5  Occ=1.000000D+00  E=-3.863344D+00

 Vector    6  Occ=1.000000D+00  E=-6.753432D-01

 Vector    7  Occ=0.000000D+00  E=-4.170450D-01

 Vector    8  Occ=0.000000D+00  E=-4.170450D-01

 Vector    9  Occ=0.000000D+00  E=-3.741266D-01

 Vector   10  Occ=0.000000D+00  E=-1.467340D-01

 Vector   11  Occ=0.000000D+00  E=-1.042499D-01

 Vector   12  Occ=0.000000D+00  E=-1.042499D-01

 Vector   13  Occ=0.000000D+00  E=-9.447182D-02

 Vector   14  Occ=0.000000D+00  E=-9.447182D-02

 Vector   15  Occ=0.000000D+00  E=-8.427693D-02

 Vector   16  Occ=0.000000D+00  E=-8.427693D-02

 Vector   17  Occ=0.000000D+00  E=-8.309273D-02

 Vector   18  Occ=0.000000D+00  E=-8.028827D-02

 Vector   19  Occ=0.000000D+00  E= 7.121050D-02

 Vector   20  Occ=0.000000D+00  E= 7.264728D-02

 Vector   21  Occ=0.000000D+00  E= 7.264729D-02

 Vector   22  Occ=0.000000D+00  E= 8.644152D-02

 Vector   23  Occ=0.000000D+00  E= 4.298013D-01

 Vector   24  Occ=0.000000D+00  E= 4.298013D-01

 Vector   25  Occ=0.000000D+00  E= 4.613201D-01

 Vector   26  Occ=0.000000D+00  E= 4.613201D-01

 Vector   27  Occ=0.000000D+00  E= 4.730786D-01

 Vector   28  Occ=0.000000D+00  E= 5.189515D-01

 Vector   29  Occ=0.000000D+00  E= 5.189515D-01

 Vector   30  Occ=0.000000D+00  E= 5.363943D-01

 Vector   31  Occ=0.000000D+00  E= 6.408058D-01

 Vector   32  Occ=0.000000D+00  E= 6.408144D-01

 Vector   33  Occ=0.000000D+00  E= 6.408144D-01

 Vector   34  Occ=0.000000D+00  E= 6.638708D-01

 Vector   35  Occ=0.000000D+00  E= 6.638708D-01

 Vector   36  Occ=0.000000D+00  E= 6.769397D-01

 Vector   37  Occ=0.000000D+00  E= 6.769397D-01

 Vector   38  Occ=0.000000D+00  E= 6.800301D-01

 Vector   39  Occ=0.000000D+00  E= 1.547425D+00

 Vector   40  Occ=0.000000D+00  E= 1.547425D+00

 Vector   41  Occ=0.000000D+00  E= 1.573537D+00

 Vector   42  Occ=0.000000D+00  E= 2.429021D+00

 Vector   43  Occ=0.000000D+00  E= 3.073857D+00

 Vector   44  Occ=0.000000D+00  E= 3.073857D+00

 Vector   45  Occ=0.000000D+00  E= 3.097402D+00

 Vector   46  Occ=0.000000D+00  E= 3.097402D+00

 Vector   47  Occ=0.000000D+00  E= 3.105540D+00

 Vector   48  Occ=0.000000D+00  E= 7.003883D+00

 Vector   49  Occ=0.000000D+00  E= 1.119856D+01

 Vector   50  Occ=0.000000D+00  E= 1.119856D+01

 Vector   51  Occ=0.000000D+00  E= 1.121777D+01

 Vector   52  Occ=0.000000D+00  E= 1.735757D+01

 Vector   53  Occ=0.000000D+00  E= 1.626145D+02

 Total times  cpu:        1.9s     wall:        2.8s
