 Output coordinates in angstroms (scale by  1.889725989 to convert to a.u.)

  No.       Tag          Charge          X              Y              Z
 ---- ---------------- ---------- -------------- -------------- --------------
    1 Si                  14.0000     0.00000000     0.00000000     0.00000000

         Total DFT energy =     -289.392528634837

                    DFT Final Alpha Molecular Orbital Analysis
                    ------------------------------------------

 Vector    1  Occ=1.000000D+00  E=-6.570866D+01

 Vector   27  Occ=0.000000D+00  E= 7.207121D-01

 Vector   28  Occ=0.000000D+00  E= 7.279590D-01

 Vector   29  Occ=0.000000D+00  E= 7.279590D-01

 Vector   30  Occ=0.000000D+00  E= 7.305296D-01

 Vector   31  Occ=0.000000D+00  E= 8.679624D-01

 Vector   32  Occ=0.000000D+00  E= 9.160612D-01

 Vector   33  Occ=0.000000D+00  E= 9.160612D-01

 Vector   34  Occ=0.000000D+00  E= 9.176077D-01

 Vector   35  Occ=0.000000D+00  E= 9.176077D-01

 Vector   36  Occ=0.000000D+00  E= 9.227302D-01

 Vector   37  Occ=0.000000D+00  E= 9.235581D-01

 Vector   38  Occ=0.000000D+00  E= 9.235581D-01

 Vector   39  Occ=0.000000D+00  E= 1.819779D+00

 Vector   40  Occ=0.000000D+00  E= 1.843769D+00

 Vector   41  Occ=0.000000D+00  E= 1.843769D+00

 Vector   42  Occ=0.000000D+00  E= 2.730006D+00

 Vector   43  Occ=0.000000D+00  E= 3.413094D+00

 Vector   44  Occ=0.000000D+00  E= 3.416225D+00

 Vector   45  Occ=0.000000D+00  E= 3.416225D+00

 Vector   46  Occ=0.000000D+00  E= 3.428522D+00

 Vector   47  Occ=0.000000D+00  E= 3.428522D+00

 Vector   48  Occ=0.000000D+00  E= 7.340226D+00

 Vector   49  Occ=0.000000D+00  E= 1.154467D+01

 Vector   50  Occ=0.000000D+00  E= 1.155220D+01

 Vector   51  Occ=0.000000D+00  E= 1.155220D+01

 Vector   52  Occ=0.000000D+00  E= 1.770559D+01

 Vector   53  Occ=0.000000D+00  E= 1.629727D+02

 Vector    1  Occ=1.000000D+00  E=-6.570254D+01

 Vector    2  Occ=1.000000D+00  E=-5.141153D+00

 Vector    3  Occ=1.000000D+00  E=-3.523983D+00

 Vector    4  Occ=1.000000D+00  E=-3.509989D+00

 Vector    5  Occ=1.000000D+00  E=-3.509989D+00

 Vector    6  Occ=1.000000D+00  E=-3.533119D-01

 Vector    7  Occ=0.000000D+00  E=-1.325987D-01

 Vector    8  Occ=0.000000D+00  E=-9.759438D-02

 Vector    9  Occ=0.000000D+00  E=-9.759438D-02

 Vector   10  Occ=0.000000D+00  E= 2.383920D-02

 Vector   11  Occ=0.000000D+00  E= 5.329870D-02

 Vector   12  Occ=0.000000D+00  E= 6.307790D-02

 Vector   13  Occ=0.000000D+00  E= 6.307790D-02

 Vector   14  Occ=0.000000D+00  E= 1.477587D-01

 Vector   15  Occ=0.000000D+00  E= 1.548949D-01

 Vector   16  Occ=0.000000D+00  E= 1.548949D-01

 Vector   17  Occ=0.000000D+00  E= 1.672907D-01

 Vector   18  Occ=0.000000D+00  E= 1.672907D-01

 Vector   19  Occ=0.000000D+00  E= 2.504550D-01

 Vector   20  Occ=0.000000D+00  E= 2.610766D-01

 Vector   21  Occ=0.000000D+00  E= 2.642804D-01

 Vector   22  Occ=0.000000D+00  E= 2.642804D-01

 Vector   23  Occ=0.000000D+00  E= 7.436821D-01

 Vector   24  Occ=0.000000D+00  E= 7.452072D-01

 Vector   25  Occ=0.000000D+00  E= 7.531307D-01

 Vector   26  Occ=0.000000D+00  E= 7.531307D-01

 Vector   27  Occ=0.000000D+00  E= 7.617701D-01

 Vector   28  Occ=0.000000D+00  E= 7.617701D-01

 Vector   29  Occ=0.000000D+00  E= 7.819305D-01

 Vector   30  Occ=0.000000D+00  E= 7.819305D-01

 Vector   31  Occ=0.000000D+00  E= 8.918026D-01

 Vector   32  Occ=0.000000D+00  E= 9.472956D-01

 Vector   33  Occ=0.000000D+00  E= 9.513404D-01

 Vector   34  Occ=0.000000D+00  E= 9.513404D-01

 Vector   35  Occ=0.000000D+00  E= 9.656484D-01

 Vector   36  Occ=0.000000D+00  E= 9.656484D-01

 Vector   37  Occ=0.000000D+00  E= 9.879475D-01

 Vector   38  Occ=0.000000D+00  E= 9.879475D-01

 Vector   39  Occ=0.000000D+00  E= 1.831445D+00

 Vector   40  Occ=0.000000D+00  E= 1.857615D+00

 Vector   41  Occ=0.000000D+00  E= 1.857615D+00

 Vector   42  Occ=0.000000D+00  E= 2.747262D+00

 Vector   43  Occ=0.000000D+00  E= 3.422695D+00

 Vector   44  Occ=0.000000D+00  E= 3.429109D+00

 Vector   45  Occ=0.000000D+00  E= 3.429109D+00

 Vector   46  Occ=0.000000D+00  E= 3.449163D+00

 Vector   47  Occ=0.000000D+00  E= 3.449163D+00

 Vector   48  Occ=0.000000D+00  E= 7.353293D+00

 Vector   49  Occ=0.000000D+00  E= 1.155176D+01

 Vector   50  Occ=0.000000D+00  E= 1.156768D+01

 Vector   51  Occ=0.000000D+00  E= 1.156768D+01

 Vector   52  Occ=0.000000D+00  E= 1.771276D+01

 Vector   53  Occ=0.000000D+00  E= 1.629790D+02

 Total times  cpu:        1.6s     wall:        2.6s
