 Output coordinates in angstroms (scale by  1.889725989 to convert to a.u.)

  No.       Tag          Charge          X              Y              Z
 ---- ---------------- ---------- -------------- -------------- --------------
    1 C                    6.0000    -0.51343561     1.65010179     0.00000000
    2 C                    6.0000     0.25664037     2.58191431     0.00000000
    3 H                    1.0000    -1.18390607     0.82061001     0.00000000
    4 H                    1.0000     0.92992104     3.40835068     0.00000000
    5 C                    6.0000     0.51343561    -1.65010179     0.00000000
    6 C                    6.0000    -0.25664037    -2.58191431     0.00000000
    7 H                    1.0000     1.18390607    -0.82061001     0.00000000
    8 H                    1.0000    -0.92992104    -3.40835068     0.00000000

         Total DFT energy =     -154.698619900517

                       DFT Final Molecular Orbital Analysis
                       ------------------------------------

 Vector    4  Occ=2.000000D+00  E=-1.007885D+01  Symmetry=bu

 Vector    5  Occ=2.000000D+00  E=-7.610036D-01  Symmetry=ag

 Vector    6  Occ=2.000000D+00  E=-7.586985D-01  Symmetry=bu

 Vector    7  Occ=2.000000D+00  E=-5.879589D-01  Symmetry=ag

 Vector    8  Occ=2.000000D+00  E=-5.814158D-01  Symmetry=bu

 Vector    9  Occ=2.000000D+00  E=-5.125288D-01  Symmetry=ag

 Vector   10  Occ=2.000000D+00  E=-5.081470D-01  Symmetry=bu

 Vector   11  Occ=2.000000D+00  E=-3.450563D-01  Symmetry=ag

 Vector   12  Occ=2.000000D+00  E=-3.402845D-01  Symmetry=au

 Vector   13  Occ=2.000000D+00  E=-3.374020D-01  Symmetry=bg

 Vector   14  Occ=2.000000D+00  E=-3.350169D-01  Symmetry=bu

 Vector   15  Occ=0.000000D+00  E=-9.688963D-02  Symmetry=ag

 Vector   16  Occ=0.000000D+00  E=-8.586994D-02  Symmetry=au

 Vector   17  Occ=0.000000D+00  E=-7.660012D-02  Symmetry=bg

 Vector   18  Occ=0.000000D+00  E=-6.717717D-02  Symmetry=bu

 Vector   19  Occ=0.000000D+00  E=-1.551311D-02  Symmetry=bu

 Vector   20  Occ=0.000000D+00  E=-1.135246D-02  Symmetry=ag

 Vector   21  Occ=0.000000D+00  E= 1.412634D-04  Symmetry=ag

 Vector   22  Occ=0.000000D+00  E= 1.255226D-02  Symmetry=bu

 Vector   23  Occ=0.000000D+00  E= 2.372781D-02  Symmetry=bu

 Vector   24  Occ=0.000000D+00  E= 4.495974D-02  Symmetry=au

 Vector   25  Occ=0.000000D+00  E= 4.882106D-02  Symmetry=ag

 Vector   26  Occ=0.000000D+00  E= 6.993675D-02  Symmetry=bu

 Vector   27  Occ=0.000000D+00  E= 7.428552D-02  Symmetry=ag

 Vector   28  Occ=0.000000D+00  E= 7.474724D-02  Symmetry=bg

 Vector   29  Occ=0.000000D+00  E= 8.844254D-02  Symmetry=ag

 Vector   30  Occ=0.000000D+00  E= 1.038827D-01  Symmetry=ag

 Vector   31  Occ=0.000000D+00  E= 1.081608D-01  Symmetry=bu

 Vector   32  Occ=0.000000D+00  E= 1.083579D-01  Symmetry=bg

 Vector   33  Occ=0.000000D+00  E= 1.182162D-01  Symmetry=bu

 Vector   34  Occ=0.000000D+00  E= 1.245734D-01  Symmetry=au

 Vector   35  Occ=0.000000D+00  E= 1.289693D-01  Symmetry=bu

 Vector   36  Occ=0.000000D+00  E= 1.315004D-01  Symmetry=ag

 Vector   37  Occ=0.000000D+00  E= 1.477543D-01  Symmetry=ag

 Vector   38  Occ=0.000000D+00  E= 1.582791D-01  Symmetry=bu

 Vector   39  Occ=0.000000D+00  E= 1.926396D-01  Symmetry=au

 Vector   40  Occ=0.000000D+00  E= 1.973190D-01  Symmetry=ag

 Vector   41  Occ=0.000000D+00  E= 2.002230D-01  Symmetry=bu

 Vector   42  Occ=0.000000D+00  E= 2.099328D-01  Symmetry=ag

 Vector   43  Occ=0.000000D+00  E= 2.373178D-01  Symmetry=bg

 Vector   44  Occ=0.000000D+00  E= 2.677212D-01  Symmetry=bu

 Vector   45  Occ=0.000000D+00  E= 2.865729D-01  Symmetry=bg

 Vector   46  Occ=0.000000D+00  E= 2.928054D-01  Symmetry=bu

 Vector   47  Occ=0.000000D+00  E= 2.932227D-01  Symmetry=ag

 Vector   48  Occ=0.000000D+00  E= 2.970377D-01  Symmetry=au

 Vector   49  Occ=0.000000D+00  E= 3.091732D-01  Symmetry=ag

 Vector   50  Occ=0.000000D+00  E= 3.219624D-01  Symmetry=ag

 Vector   51  Occ=0.000000D+00  E= 3.336079D-01  Symmetry=bu

 Vector   52  Occ=0.000000D+00  E= 3.400750D-01  Symmetry=bu

 Vector   53  Occ=0.000000D+00  E= 3.706852D-01  Symmetry=au

 Vector   54  Occ=0.000000D+00  E= 3.956040D-01  Symmetry=ag

 Vector   55  Occ=0.000000D+00  E= 4.271296D-01  Symmetry=bu

 Vector   56  Occ=0.000000D+00  E= 4.275521D-01  Symmetry=ag

 Vector   57  Occ=0.000000D+00  E= 4.304882D-01  Symmetry=bg

 Vector   58  Occ=0.000000D+00  E= 4.364581D-01  Symmetry=bu

 Vector   59  Occ=0.000000D+00  E= 4.368323D-01  Symmetry=au

 Vector   60  Occ=0.000000D+00  E= 4.449207D-01  Symmetry=bg

 Vector   61  Occ=0.000000D+00  E= 4.520934D-01  Symmetry=au

 Vector   62  Occ=0.000000D+00  E= 4.560283D-01  Symmetry=bu

 Vector   63  Occ=0.000000D+00  E= 4.691311D-01  Symmetry=ag

 Vector   64  Occ=0.000000D+00  E= 4.758207D-01  Symmetry=bg

 Vector   65  Occ=0.000000D+00  E= 4.864142D-01  Symmetry=ag

 Vector   66  Occ=0.000000D+00  E= 4.989052D-01  Symmetry=bu

 Vector   67  Occ=0.000000D+00  E= 5.363254D-01  Symmetry=ag

     Multipole analysis of the density
     ---------------------------------

     L   x y z        total         alpha         beta         nuclear
     -   - - -        -----         -----         ----         -------
     0   0 0 0     -0.000000    -14.000000    -14.000000     28.000000

     1   1 0 0     -0.000000     -0.000000     -0.000000      0.000000
     1   0 1 0     -0.000000     -0.000000     -0.000000      0.000000
     1   0 0 1      0.000000      0.000000      0.000000      0.000000

     2   2 0 0    -16.937546    -23.621760    -23.621760     30.305974
     2   1 1 0      4.929790     -1.428945     -1.428945      7.787680
     2   1 0 1      0.000000      0.000000      0.000000      0.000000
     2   0 2 0    -14.642369   -252.385329   -252.385329    490.128288
     2   0 1 1      0.000000      0.000000      0.000000      0.000000

 Total times  cpu:       15.7s     wall:       17.6s
