 Output coordinates in angstroms (scale by  1.889725989 to convert to a.u.)

  No.       Tag          Charge          X              Y              Z
 ---- ---------------- ---------- -------------- -------------- --------------
    1 O                    8.0000     0.01959277    -1.53498043    -0.06604063
    2 H                    1.0000    -0.01653885    -0.57478224     0.04178485
    3 H                    1.0000    -0.23518907    -1.87917305     0.79441927
    4 O                    8.0000    -0.01665569     1.39905500     0.05697394
    5 H                    1.0000    -0.61633501     1.77694689    -0.59418791
    6 H                    1.0000     0.84456633     1.76441188    -0.16948269

         Total DFT energy =     -152.919414749714

                       DFT Final Molecular Orbital Analysis
                       ------------------------------------

 Vector    1  Occ=2.000000D+00  E=-1.899971D+01

 Vector    2  Occ=2.000000D+00  E=-1.893724D+01

 Vector    3  Occ=2.000000D+00  E=-1.037990D+00

 Vector    4  Occ=2.000000D+00  E=-9.766787D-01

 Vector    5  Occ=2.000000D+00  E=-5.778658D-01

 Vector    6  Occ=2.000000D+00  E=-5.240901D-01

 Vector    7  Occ=2.000000D+00  E=-4.512703D-01

 Vector    8  Occ=2.000000D+00  E=-3.921855D-01

 Vector    9  Occ=2.000000D+00  E=-3.705693D-01

 Vector   10  Occ=2.000000D+00  E=-3.171295D-01

 Vector   11  Occ=0.000000D+00  E=-6.328430D-02

 Vector   12  Occ=0.000000D+00  E=-9.979384D-03

 Vector   13  Occ=0.000000D+00  E= 9.083008D-03

 Vector   14  Occ=0.000000D+00  E= 5.860248D-02

 Vector   15  Occ=0.000000D+00  E= 9.054583D-02

 Vector   16  Occ=0.000000D+00  E= 9.512070D-02

 Vector   17  Occ=0.000000D+00  E= 1.038233D-01

 Vector   18  Occ=0.000000D+00  E= 1.164329D-01

 Vector   19  Occ=0.000000D+00  E= 1.315729D-01

 Vector   20  Occ=0.000000D+00  E= 1.590855D-01

 Vector   21  Occ=0.000000D+00  E= 1.599322D-01

 Vector   22  Occ=0.000000D+00  E= 1.795720D-01

 Vector   23  Occ=0.000000D+00  E= 1.929896D-01

 Vector   24  Occ=0.000000D+00  E= 2.050086D-01

 Vector   25  Occ=0.000000D+00  E= 2.355958D-01

 Vector   26  Occ=0.000000D+00  E= 2.515109D-01

 Vector   27  Occ=0.000000D+00  E= 2.570320D-01

 Vector   28  Occ=0.000000D+00  E= 2.820416D-01

 Vector   29  Occ=0.000000D+00  E= 3.456959D-01

 Vector   30  Occ=0.000000D+00  E= 3.729457D-01

 Vector   31  Occ=0.000000D+00  E= 3.742029D-01

 Vector   32  Occ=0.000000D+00  E= 4.083567D-01

 Vector   33  Occ=0.000000D+00  E= 4.336691D-01

 Vector   34  Occ=0.000000D+00  E= 4.475926D-01

 Vector   35  Occ=0.000000D+00  E= 4.616527D-01

 Vector   36  Occ=0.000000D+00  E= 5.254245D-01

     Multipole analysis of the density
     ---------------------------------

     L   x y z        total         alpha         beta         nuclear
     -   - - -        -----         -----         ----         -------
     0   0 0 0     -0.000000    -10.000000    -10.000000     20.000000

     1   1 0 0     -0.014054     -0.007027     -0.007027      0.000000
     1   0 1 0      1.146522      0.573261      0.573261     -0.000000
     1   0 0 1      0.042887      0.021443      0.021443      0.000000

     2   2 0 0     -9.199205     -6.660176     -6.660176      4.121147
     2   1 1 0      1.309466     -0.094158     -0.094158      1.497781
     2   1 0 1      0.089547      0.013336      0.013336      0.062875
     2   0 2 0     -8.528808    -83.971477    -83.971477    159.414146
     2   0 1 1     -4.476499      0.302742      0.302742     -5.081982

 Total times  cpu:        6.8s     wall:        7.9s
