 Output coordinates in angstroms (scale by  1.889725989 to convert to a.u.)

  No.       Tag          Charge          X              Y              Z
 ---- ---------------- ---------- -------------- -------------- --------------
    1 O                    8.0000    -1.13231314     1.45209686     0.00000000
    2 C                    6.0000    -0.04944419     2.03128684     0.00000000
    3 H                    1.0000     0.00527464     3.13019549     0.00000000
    4 N                    7.0000     1.14976845     1.42894026     0.00000000
    5 H                    1.0000     1.22019123     0.40914488     0.00000000
    6 H                    1.0000     1.98354370     1.99011906     0.00000000
    7 O                    8.0000     1.13231314    -1.45209686     0.00000000
    8 C                    6.0000     0.04944419    -2.03128684     0.00000000
    9 H                    1.0000    -0.00527464    -3.13019549     0.00000000
   10 N                    7.0000    -1.14976845    -1.42894026     0.00000000
   11 H                    1.0000    -1.22019123    -0.40914488     0.00000000
   12 H                    1.0000    -1.98354370    -1.99011906     0.00000000

         Total DFT energy =     -339.943615674153

                       DFT Final Molecular Orbital Analysis
                       ------------------------------------

 Vector    6  Occ=2.000000D+00  E=-1.016113D+01  Symmetry=ag

 Vector    7  Occ=2.000000D+00  E=-1.041486D+00  Symmetry=ag

 Vector    8  Occ=2.000000D+00  E=-1.036774D+00  Symmetry=bu

 Vector    9  Occ=2.000000D+00  E=-9.127721D-01  Symmetry=bu

 Vector   10  Occ=2.000000D+00  E=-9.078246D-01  Symmetry=ag

 Vector   11  Occ=2.000000D+00  E=-6.497574D-01  Symmetry=ag

 Vector   12  Occ=2.000000D+00  E=-6.290765D-01  Symmetry=bu

 Vector   13  Occ=2.000000D+00  E=-5.824175D-01  Symmetry=ag

 Vector   14  Occ=2.000000D+00  E=-5.729965D-01  Symmetry=bu

 Vector   15  Occ=2.000000D+00  E=-5.305626D-01  Symmetry=bu

 Vector   16  Occ=2.000000D+00  E=-4.820667D-01  Symmetry=ag

 Vector   17  Occ=2.000000D+00  E=-4.586954D-01  Symmetry=ag

 Vector   18  Occ=2.000000D+00  E=-4.577819D-01  Symmetry=au

 Vector   19  Occ=2.000000D+00  E=-4.519207D-01  Symmetry=bg

 Vector   20  Occ=2.000000D+00  E=-4.343916D-01  Symmetry=bu

 Vector   21  Occ=2.000000D+00  E=-3.293440D-01  Symmetry=bg

 Vector   22  Occ=2.000000D+00  E=-3.208686D-01  Symmetry=au

 Vector   23  Occ=2.000000D+00  E=-3.180046D-01  Symmetry=ag

 Vector   24  Occ=2.000000D+00  E=-2.959826D-01  Symmetry=bu

 Vector   25  Occ=0.000000D+00  E=-1.074998D-01  Symmetry=au

 Vector   26  Occ=0.000000D+00  E=-9.459883D-02  Symmetry=bg

 Vector   27  Occ=0.000000D+00  E=-3.448450D-02  Symmetry=ag

 Vector   28  Occ=0.000000D+00  E=-2.873962D-02  Symmetry=bu

 Vector   29  Occ=0.000000D+00  E= 2.743885D-03  Symmetry=ag

 Vector   30  Occ=0.000000D+00  E= 7.699305D-03  Symmetry=bu

 Vector   31  Occ=0.000000D+00  E= 2.649352D-02  Symmetry=ag

 Vector   32  Occ=0.000000D+00  E= 4.060748D-02  Symmetry=bu

 Vector   33  Occ=0.000000D+00  E= 4.368555D-02  Symmetry=au

 Vector   34  Occ=0.000000D+00  E= 4.610806D-02  Symmetry=ag

 Vector   35  Occ=0.000000D+00  E= 6.434875D-02  Symmetry=bu

 Vector   36  Occ=0.000000D+00  E= 6.442885D-02  Symmetry=bg

 Vector   37  Occ=0.000000D+00  E= 6.962324D-02  Symmetry=ag

 Vector   38  Occ=0.000000D+00  E= 7.477161D-02  Symmetry=bu

 Vector   39  Occ=0.000000D+00  E= 9.008346D-02  Symmetry=bu

 Vector   40  Occ=0.000000D+00  E= 9.352277D-02  Symmetry=ag

 Vector   41  Occ=0.000000D+00  E= 1.066116D-01  Symmetry=bu

 Vector   42  Occ=0.000000D+00  E= 1.091707D-01  Symmetry=ag

 Vector   43  Occ=0.000000D+00  E= 1.171808D-01  Symmetry=ag

 Vector   44  Occ=0.000000D+00  E= 1.201544D-01  Symmetry=bg

 Vector   45  Occ=0.000000D+00  E= 1.301800D-01  Symmetry=bu

 Vector   46  Occ=0.000000D+00  E= 1.360139D-01  Symmetry=au

 Vector   47  Occ=0.000000D+00  E= 1.497281D-01  Symmetry=ag

 Vector   48  Occ=0.000000D+00  E= 1.572236D-01  Symmetry=au

 Vector   49  Occ=0.000000D+00  E= 1.605923D-01  Symmetry=ag

 Vector   50  Occ=0.000000D+00  E= 1.731212D-01  Symmetry=bu

 Vector   51  Occ=0.000000D+00  E= 1.928793D-01  Symmetry=bu

 Vector   52  Occ=0.000000D+00  E= 2.006103D-01  Symmetry=ag

 Vector   53  Occ=0.000000D+00  E= 2.091419D-01  Symmetry=ag

 Vector   54  Occ=0.000000D+00  E= 2.118319D-01  Symmetry=bu

 Vector   55  Occ=0.000000D+00  E= 2.219881D-01  Symmetry=ag

 Vector   56  Occ=0.000000D+00  E= 2.290855D-01  Symmetry=bu

 Vector   57  Occ=0.000000D+00  E= 2.317010D-01  Symmetry=bg

 Vector   58  Occ=0.000000D+00  E= 2.434044D-01  Symmetry=au

 Vector   59  Occ=0.000000D+00  E= 2.441638D-01  Symmetry=bu

 Vector   60  Occ=0.000000D+00  E= 2.544479D-01  Symmetry=bu

 Vector   61  Occ=0.000000D+00  E= 2.566526D-01  Symmetry=ag

 Vector   62  Occ=0.000000D+00  E= 2.623745D-01  Symmetry=bg

 Vector   63  Occ=0.000000D+00  E= 2.931370D-01  Symmetry=bu

 Vector   64  Occ=0.000000D+00  E= 2.936159D-01  Symmetry=ag

 Vector   65  Occ=0.000000D+00  E= 3.034736D-01  Symmetry=bg

 Vector   66  Occ=0.000000D+00  E= 3.321434D-01  Symmetry=ag

 Vector   67  Occ=0.000000D+00  E= 3.378519D-01  Symmetry=au

 Vector   68  Occ=0.000000D+00  E= 3.429201D-01  Symmetry=ag

 Vector   69  Occ=0.000000D+00  E= 3.492482D-01  Symmetry=bu

 Vector   70  Occ=0.000000D+00  E= 3.559465D-01  Symmetry=ag

 Vector   71  Occ=0.000000D+00  E= 3.814917D-01  Symmetry=bu

 Vector   72  Occ=0.000000D+00  E= 3.978030D-01  Symmetry=bg

 Vector   73  Occ=0.000000D+00  E= 4.063837D-01  Symmetry=au

 Vector   74  Occ=0.000000D+00  E= 4.214132D-01  Symmetry=ag

 Vector   75  Occ=0.000000D+00  E= 4.305335D-01  Symmetry=au

 Vector   76  Occ=0.000000D+00  E= 4.341482D-01  Symmetry=bu

 Vector   77  Occ=0.000000D+00  E= 4.394725D-01  Symmetry=bu

 Vector   78  Occ=0.000000D+00  E= 4.486506D-01  Symmetry=ag

 Vector   79  Occ=0.000000D+00  E= 4.544183D-01  Symmetry=ag

 Vector   80  Occ=0.000000D+00  E= 4.632593D-01  Symmetry=bu

 Vector   81  Occ=0.000000D+00  E= 4.719852D-01  Symmetry=bg

 Vector   82  Occ=0.000000D+00  E= 4.733104D-01  Symmetry=bu

 Vector   83  Occ=0.000000D+00  E= 4.895144D-01  Symmetry=au

 Vector   84  Occ=0.000000D+00  E= 4.927146D-01  Symmetry=ag

 Vector   85  Occ=0.000000D+00  E= 5.089957D-01  Symmetry=bg

     Multipole analysis of the density
     ---------------------------------

     L   x y z        total         alpha         beta         nuclear
     -   - - -        -----         -----         ----         -------
     0   0 0 0     -0.000000    -24.000000    -24.000000     48.000000

     1   1 0 0      0.000000      0.000000      0.000000     -0.000000
     1   0 1 0      0.000000      0.000000      0.000000     -0.000000
     1   0 0 1      0.000000      0.000000      0.000000      0.000000

     2   2 0 0    -26.229992   -102.208927   -102.208927    178.187861
     2   1 1 0      8.697215     -3.534331     -3.534331     15.765878
     2   1 0 1      0.000000      0.000000      0.000000      0.000000
     2   0 2 0    -19.693488   -259.266405   -259.266405    498.839323
     2   0 1 1      0.000000      0.000000      0.000000      0.000000

 Total times  cpu:       34.4s     wall:       37.7s
