 Output coordinates in angstroms (scale by  1.889725989 to convert to a.u.)

  No.       Tag          Charge          X              Y              Z
 ---- ---------------- ---------- -------------- -------------- --------------
    1 C                    6.0000    -0.17291715     1.91003112     0.00000000
    2 H                    1.0000    -0.25007015     3.00126976     0.00000000
    3 O                    8.0000    -1.15507227     1.18960921     0.00000000
    4 O                    8.0000     1.08064655     1.51083538     0.00000000
    5 H                    1.0000     1.11367946     0.51989930     0.00000000
    6 O                    8.0000     1.15507227    -1.18960921     0.00000000
    7 C                    6.0000     0.17291715    -1.91003112     0.00000000
    8 O                    8.0000    -1.08064655    -1.51083538     0.00000000
    9 H                    1.0000    -1.11367946    -0.51989930     0.00000000
   10 H                    1.0000     0.25007015    -3.00126976     0.00000000

         Total DFT energy =     -379.718519900600

                       DFT Final Molecular Orbital Analysis
                       ------------------------------------

 Vector    6  Occ=2.000000D+00  E=-1.020730D+01  Symmetry=bu

 Vector    7  Occ=2.000000D+00  E=-1.127791D+00  Symmetry=ag

 Vector    8  Occ=2.000000D+00  E=-1.116723D+00  Symmetry=bu

 Vector    9  Occ=2.000000D+00  E=-1.043849D+00  Symmetry=bu

 Vector   10  Occ=2.000000D+00  E=-1.032563D+00  Symmetry=ag

 Vector   11  Occ=2.000000D+00  E=-7.044555D-01  Symmetry=ag

 Vector   12  Occ=2.000000D+00  E=-6.774020D-01  Symmetry=bu

 Vector   13  Occ=2.000000D+00  E=-5.810969D-01  Symmetry=bu

 Vector   14  Occ=2.000000D+00  E=-5.547829D-01  Symmetry=ag

 Vector   15  Occ=2.000000D+00  E=-5.410185D-01  Symmetry=bu

 Vector   16  Occ=2.000000D+00  E=-5.217793D-01  Symmetry=ag

 Vector   17  Occ=2.000000D+00  E=-5.113503D-01  Symmetry=au

 Vector   18  Occ=2.000000D+00  E=-5.032075D-01  Symmetry=bg

 Vector   19  Occ=2.000000D+00  E=-4.594203D-01  Symmetry=ag

 Vector   20  Occ=2.000000D+00  E=-4.205035D-01  Symmetry=bu

 Vector   21  Occ=2.000000D+00  E=-3.929767D-01  Symmetry=bg

 Vector   22  Occ=2.000000D+00  E=-3.829398D-01  Symmetry=au

 Vector   23  Occ=2.000000D+00  E=-3.569660D-01  Symmetry=ag

 Vector   24  Occ=2.000000D+00  E=-3.385750D-01  Symmetry=bu

 Vector   25  Occ=0.000000D+00  E=-1.417025D-01  Symmetry=au

 Vector   26  Occ=0.000000D+00  E=-1.304008D-01  Symmetry=bg

 Vector   27  Occ=0.000000D+00  E=-2.205301D-02  Symmetry=ag

 Vector   28  Occ=0.000000D+00  E=-7.400687D-03  Symmetry=ag

 Vector   29  Occ=0.000000D+00  E=-6.176060D-03  Symmetry=bu

 Vector   30  Occ=0.000000D+00  E= 9.805842D-03  Symmetry=bu

 Vector   31  Occ=0.000000D+00  E= 3.554798D-02  Symmetry=au

 Vector   32  Occ=0.000000D+00  E= 4.218582D-02  Symmetry=bu

 Vector   33  Occ=0.000000D+00  E= 4.992500D-02  Symmetry=ag

 Vector   34  Occ=0.000000D+00  E= 5.637892D-02  Symmetry=ag

 Vector   35  Occ=0.000000D+00  E= 6.546785D-02  Symmetry=bg

 Vector   36  Occ=0.000000D+00  E= 8.068206D-02  Symmetry=bu

 Vector   37  Occ=0.000000D+00  E= 8.563950D-02  Symmetry=ag

 Vector   38  Occ=0.000000D+00  E= 9.582686D-02  Symmetry=bu

 Vector   39  Occ=0.000000D+00  E= 9.783175D-02  Symmetry=ag

 Vector   40  Occ=0.000000D+00  E= 1.045478D-01  Symmetry=bu

 Vector   41  Occ=0.000000D+00  E= 1.327670D-01  Symmetry=au

 Vector   42  Occ=0.000000D+00  E= 1.452099D-01  Symmetry=ag

 Vector   43  Occ=0.000000D+00  E= 1.461640D-01  Symmetry=bg

 Vector   44  Occ=0.000000D+00  E= 1.671182D-01  Symmetry=ag

 Vector   45  Occ=0.000000D+00  E= 1.680395D-01  Symmetry=bu

 Vector   46  Occ=0.000000D+00  E= 1.785542D-01  Symmetry=ag

 Vector   47  Occ=0.000000D+00  E= 1.850614D-01  Symmetry=bu

 Vector   48  Occ=0.000000D+00  E= 2.008224D-01  Symmetry=ag

 Vector   49  Occ=0.000000D+00  E= 2.085849D-01  Symmetry=au

 Vector   50  Occ=0.000000D+00  E= 2.142420D-01  Symmetry=bu

 Vector   51  Occ=0.000000D+00  E= 2.250036D-01  Symmetry=bu

 Vector   52  Occ=0.000000D+00  E= 2.303592D-01  Symmetry=bu

 Vector   53  Occ=0.000000D+00  E= 2.390306D-01  Symmetry=au

 Vector   54  Occ=0.000000D+00  E= 2.390782D-01  Symmetry=ag

 Vector   55  Occ=0.000000D+00  E= 2.538658D-01  Symmetry=ag

 Vector   56  Occ=0.000000D+00  E= 2.585543D-01  Symmetry=bu

 Vector   57  Occ=0.000000D+00  E= 2.593928D-01  Symmetry=bg

 Vector   58  Occ=0.000000D+00  E= 2.692781D-01  Symmetry=bg

 Vector   59  Occ=0.000000D+00  E= 2.810041D-01  Symmetry=bu

 Vector   60  Occ=0.000000D+00  E= 2.875510D-01  Symmetry=ag

 Vector   61  Occ=0.000000D+00  E= 2.992614D-01  Symmetry=ag

 Vector   62  Occ=0.000000D+00  E= 3.144981D-01  Symmetry=bg

 Vector   63  Occ=0.000000D+00  E= 3.267871D-01  Symmetry=bu

 Vector   64  Occ=0.000000D+00  E= 3.372833D-01  Symmetry=au

 Vector   65  Occ=0.000000D+00  E= 3.377197D-01  Symmetry=ag

 Vector   66  Occ=0.000000D+00  E= 3.488680D-01  Symmetry=ag

 Vector   67  Occ=0.000000D+00  E= 3.596350D-01  Symmetry=bu

 Vector   68  Occ=0.000000D+00  E= 4.148095D-01  Symmetry=ag

 Vector   69  Occ=0.000000D+00  E= 4.319527D-01  Symmetry=bu

 Vector   70  Occ=0.000000D+00  E= 4.389210D-01  Symmetry=au

 Vector   71  Occ=0.000000D+00  E= 4.426068D-01  Symmetry=ag

 Vector   72  Occ=0.000000D+00  E= 4.468088D-01  Symmetry=bg

 Vector   73  Occ=0.000000D+00  E= 4.766190D-01  Symmetry=au

 Vector   74  Occ=0.000000D+00  E= 4.798733D-01  Symmetry=bu

 Vector   75  Occ=0.000000D+00  E= 4.944387D-01  Symmetry=bu

 Vector   76  Occ=0.000000D+00  E= 5.017822D-01  Symmetry=bg

     Multipole analysis of the density
     ---------------------------------

     L   x y z        total         alpha         beta         nuclear
     -   - - -        -----         -----         ----         -------
     0   0 0 0     -0.000000    -24.000000    -24.000000     48.000000

     1   1 0 0     -0.000000     -0.000000     -0.000000      0.000000
     1   0 1 0      0.000000      0.000000      0.000000      0.000000
     1   0 0 1      0.000000      0.000000      0.000000      0.000000

     2   2 0 0    -31.075644    -92.309028    -92.309028    153.542412
     2   1 1 0     -0.788228     -0.092594     -0.092594     -0.603040
     2   1 0 1      0.000000      0.000000      0.000000      0.000000
     2   0 2 0    -19.497181   -226.689239   -226.689239    433.881297
     2   0 1 1     -0.000000     -0.000000     -0.000000      0.000000

 Total times  cpu:       27.1s     wall:       29.8s
