 Output coordinates in angstroms (scale by  1.889725989 to convert to a.u.)

  No.       Tag          Charge          X              Y              Z
 ---- ---------------- ---------- -------------- -------------- --------------
    1 F                    9.0000    -0.06439209    -1.32524866     0.00000000
    2 H                    1.0000     0.76719931    -1.72580394     0.00000000
    3 F                    9.0000    -0.00916764     1.45729794     0.00000000
    4 H                    1.0000    -0.10516170     0.53736046     0.00000000

         Total DFT energy =     -200.981675393509

                       DFT Final Molecular Orbital Analysis
                       ------------------------------------

 Vector    1  Occ=2.000000D+00  E=-2.453409D+01  Symmetry=a'

 Vector    2  Occ=2.000000D+00  E=-2.446035D+01  Symmetry=a'

 Vector    3  Occ=2.000000D+00  E=-1.236918D+00  Symmetry=a'

 Vector    4  Occ=2.000000D+00  E=-1.164298D+00  Symmetry=a'

 Vector    5  Occ=2.000000D+00  E=-6.194766D-01  Symmetry=a'

 Vector    6  Occ=2.000000D+00  E=-5.487200D-01  Symmetry=a'

 Vector    7  Occ=2.000000D+00  E=-4.804612D-01  Symmetry=a'

 Vector    8  Occ=2.000000D+00  E=-4.803211D-01  Symmetry=a"

 Vector    9  Occ=2.000000D+00  E=-4.126818D-01  Symmetry=a'

 Vector   10  Occ=2.000000D+00  E=-4.123742D-01  Symmetry=a"

 Vector   11  Occ=0.000000D+00  E=-7.277452D-02  Symmetry=a'

 Vector   12  Occ=0.000000D+00  E= 9.712337D-03  Symmetry=a'

 Vector   13  Occ=0.000000D+00  E= 7.423137D-02  Symmetry=a'

 Vector   14  Occ=0.000000D+00  E= 1.049800D-01  Symmetry=a'

 Vector   15  Occ=0.000000D+00  E= 1.382518D-01  Symmetry=a'

 Vector   16  Occ=0.000000D+00  E= 1.394544D-01  Symmetry=a"

 Vector   17  Occ=0.000000D+00  E= 1.920439D-01  Symmetry=a'

 Vector   18  Occ=0.000000D+00  E= 2.022770D-01  Symmetry=a'

 Vector   19  Occ=0.000000D+00  E= 2.231566D-01  Symmetry=a"

 Vector   20  Occ=0.000000D+00  E= 2.701617D-01  Symmetry=a'

 Vector   21  Occ=0.000000D+00  E= 2.876478D-01  Symmetry=a'

 Vector   22  Occ=0.000000D+00  E= 3.139617D-01  Symmetry=a"

 Vector   23  Occ=0.000000D+00  E= 3.198488D-01  Symmetry=a'

 Vector   24  Occ=0.000000D+00  E= 3.462267D-01  Symmetry=a'

 Vector   25  Occ=0.000000D+00  E= 3.777494D-01  Symmetry=a'

 Vector   26  Occ=0.000000D+00  E= 3.936576D-01  Symmetry=a"

 Vector   27  Occ=0.000000D+00  E= 4.706818D-01  Symmetry=a'

 Vector   28  Occ=0.000000D+00  E= 4.966968D-01  Symmetry=a'

 Vector   29  Occ=0.000000D+00  E= 6.541372D-01  Symmetry=a'

     Multipole analysis of the density
     ---------------------------------

     L   x y z        total         alpha         beta         nuclear
     -   - - -        -----         -----         ----         -------
     0   0 0 0     -0.000000    -10.000000    -10.000000     20.000000

     1   1 0 0      0.587765      0.293883      0.293883     -0.000000
     1   0 1 0     -1.248228     -0.624114     -0.624114      0.000000
     1   0 0 1      0.000000      0.000000      0.000000      0.000000

     2   2 0 0     -7.359576     -4.818471     -4.818471      2.277365
     2   1 1 0     -2.415921      0.100416      0.100416     -2.616752
     2   1 0 1      0.000000      0.000000      0.000000      0.000000
     2   0 2 0     -8.605610    -72.487220    -72.487220    136.368830
     2   0 1 1      0.000000      0.000000      0.000000      0.000000

 Total times  cpu:        2.2s     wall:        3.0s
