 Output coordinates in angstroms (scale by  1.889725989 to convert to a.u.)

  No.       Tag          Charge          X              Y              Z
 ---- ---------------- ---------- -------------- -------------- --------------
    1 N                    7.0000     0.00008644    -1.57573687    -0.01440320
    2 H                    1.0000     0.81394327    -2.13589743    -0.24842003
    3 H                    1.0000    -0.00293419    -1.47883692     0.99689418
    4 H                    1.0000    -0.81189678    -2.13659096    -0.25323355
    5 N                    7.0000     0.00008332     1.68984999     0.07460997
    6 H                    1.0000    -0.81267979     2.12038370    -0.35531900
    7 H                    1.0000     0.81184021     2.12140530    -0.35620226
    8 H                    1.0000     0.00053896     0.71074447    -0.20516675

         Total DFT energy =     -113.145540906604

                       DFT Final Molecular Orbital Analysis
                       ------------------------------------

 Vector    1  Occ=2.000000D+00  E=-1.417200D+01

 Vector    2  Occ=2.000000D+00  E=-1.413228D+01

 Vector    3  Occ=2.000000D+00  E=-8.631015D-01

 Vector    4  Occ=2.000000D+00  E=-8.246196D-01

 Vector    5  Occ=2.000000D+00  E=-4.913495D-01

 Vector    6  Occ=2.000000D+00  E=-4.905321D-01

 Vector    7  Occ=2.000000D+00  E=-4.557573D-01

 Vector    8  Occ=2.000000D+00  E=-4.534572D-01

 Vector    9  Occ=2.000000D+00  E=-3.161656D-01

 Vector   10  Occ=2.000000D+00  E=-2.784300D-01

 Vector   11  Occ=0.000000D+00  E=-4.655889D-02

 Vector   12  Occ=0.000000D+00  E=-1.109764D-02

 Vector   13  Occ=0.000000D+00  E= 1.898412D-02

 Vector   14  Occ=0.000000D+00  E= 2.417697D-02

 Vector   15  Occ=0.000000D+00  E= 3.794414D-02

 Vector   16  Occ=0.000000D+00  E= 5.626137D-02

 Vector   17  Occ=0.000000D+00  E= 7.265952D-02

 Vector   18  Occ=0.000000D+00  E= 8.235119D-02

 Vector   19  Occ=0.000000D+00  E= 8.609678D-02

 Vector   20  Occ=0.000000D+00  E= 1.040882D-01

 Vector   21  Occ=0.000000D+00  E= 1.140648D-01

 Vector   22  Occ=0.000000D+00  E= 1.202180D-01

 Vector   23  Occ=0.000000D+00  E= 1.333832D-01

 Vector   24  Occ=0.000000D+00  E= 1.372237D-01

 Vector   25  Occ=0.000000D+00  E= 1.540023D-01

 Vector   26  Occ=0.000000D+00  E= 1.542070D-01

 Vector   27  Occ=0.000000D+00  E= 1.732551D-01

 Vector   28  Occ=0.000000D+00  E= 1.830175D-01

 Vector   29  Occ=0.000000D+00  E= 1.838824D-01

 Vector   30  Occ=0.000000D+00  E= 2.112808D-01

 Vector   31  Occ=0.000000D+00  E= 2.340306D-01

 Vector   32  Occ=0.000000D+00  E= 2.758042D-01

 Vector   33  Occ=0.000000D+00  E= 2.812416D-01

 Vector   34  Occ=0.000000D+00  E= 3.160478D-01

 Vector   35  Occ=0.000000D+00  E= 3.329389D-01

 Vector   36  Occ=0.000000D+00  E= 3.433969D-01

 Vector   37  Occ=0.000000D+00  E= 3.801973D-01

 Vector   38  Occ=0.000000D+00  E= 3.925497D-01

 Vector   39  Occ=0.000000D+00  E= 4.099383D-01

 Vector   40  Occ=0.000000D+00  E= 4.375293D-01

 Vector   41  Occ=0.000000D+00  E= 4.780071D-01

 Vector   42  Occ=0.000000D+00  E= 4.873463D-01

 Vector   43  Occ=0.000000D+00  E= 5.038107D-01

     Multipole analysis of the density
     ---------------------------------

     L   x y z        total         alpha         beta         nuclear
     -   - - -        -----         -----         ----         -------
     0   0 0 0     -0.000000    -10.000000    -10.000000     20.000000

     1   1 0 0     -0.000837     -0.000419     -0.000419      0.000000
     1   0 1 0     -0.837884     -0.418942     -0.418942     -0.000000
     1   0 0 1     -0.299647     -0.149823     -0.149823     -0.000000

     2   2 0 0     -9.744875     -9.588424     -9.588424      9.431974
     2   1 1 0     -0.000922     -0.000453     -0.000453     -0.000016
     2   1 0 1     -0.000144     -0.000037     -0.000037     -0.000071
     2   0 2 0     -8.638245   -108.210955   -108.210955    207.783664
     2   0 1 1     -2.246790      0.690784      0.690784     -3.628357

 Total times  cpu:       12.1s     wall:       13.7s
