 Output coordinates in angstroms (scale by  1.889725989 to convert to a.u.)

  No.       Tag          Charge          X              Y              Z
 ---- ---------------- ---------- -------------- -------------- --------------
    1 C                    6.0000    -0.00096370    -0.60419923     0.00000000
    2 C                    6.0000     0.00096370     0.60419923     0.00000000
    3 H                    1.0000     0.00415110    -1.67015375     0.00000000
    4 H                    1.0000    -0.00415110     1.67015375     0.00000000

         Total DFT energy =      -77.349205981254

                       DFT Final Molecular Orbital Analysis
                       ------------------------------------

 Vector    1  Occ=2.000000D+00  E=-1.002361D+01  Symmetry=ag

 Vector    2  Occ=2.000000D+00  E=-1.002160D+01  Symmetry=bu

 Vector    3  Occ=2.000000D+00  E=-7.035099D-01  Symmetry=ag

 Vector    4  Occ=2.000000D+00  E=-5.345930D-01  Symmetry=bu

 Vector    5  Occ=2.000000D+00  E=-4.597310D-01  Symmetry=ag

 Vector    6  Occ=2.000000D+00  E=-2.660103D-01  Symmetry=bu

 Vector    7  Occ=2.000000D+00  E=-2.660092D-01  Symmetry=au

 Vector    8  Occ=0.000000D+00  E=-1.078147D-02  Symmetry=ag

 Vector    9  Occ=0.000000D+00  E=-8.580473D-03  Symmetry=ag

 Vector   10  Occ=0.000000D+00  E=-8.572994D-03  Symmetry=bg

 Vector   11  Occ=0.000000D+00  E=-1.625345D-03  Symmetry=bu

 Vector   12  Occ=0.000000D+00  E= 5.299728D-02  Symmetry=bu

 Vector   13  Occ=0.000000D+00  E= 5.299773D-02  Symmetry=au

 Vector   14  Occ=0.000000D+00  E= 5.588177D-02  Symmetry=ag

 Vector   15  Occ=0.000000D+00  E= 1.076724D-01  Symmetry=ag

 Vector   16  Occ=0.000000D+00  E= 1.084300D-01  Symmetry=bu

 Vector   17  Occ=0.000000D+00  E= 1.118723D-01  Symmetry=ag

 Vector   18  Occ=0.000000D+00  E= 1.118729D-01  Symmetry=bg

 Vector   19  Occ=0.000000D+00  E= 1.321126D-01  Symmetry=bu

 Vector   20  Occ=0.000000D+00  E= 2.249956D-01  Symmetry=ag

 Vector   21  Occ=0.000000D+00  E= 2.996780D-01  Symmetry=ag

 Vector   22  Occ=0.000000D+00  E= 2.996783D-01  Symmetry=bg

 Vector   23  Occ=0.000000D+00  E= 3.029982D-01  Symmetry=bu

 Vector   24  Occ=0.000000D+00  E= 3.209515D-01  Symmetry=ag

 Vector   25  Occ=0.000000D+00  E= 3.534898D-01  Symmetry=bu

 Vector   26  Occ=0.000000D+00  E= 3.534904D-01  Symmetry=au

 Vector   27  Occ=0.000000D+00  E= 4.701238D-01  Symmetry=bu

 Vector   28  Occ=0.000000D+00  E= 4.760834D-01  Symmetry=au

 Vector   29  Occ=0.000000D+00  E= 4.760842D-01  Symmetry=bu

 Vector   30  Occ=0.000000D+00  E= 4.939271D-01  Symmetry=ag

 Vector   31  Occ=0.000000D+00  E= 4.939300D-01  Symmetry=bg

 Vector   32  Occ=0.000000D+00  E= 5.012347D-01  Symmetry=au

     Multipole analysis of the density
     ---------------------------------

     L   x y z        total         alpha         beta         nuclear
     -   - - -        -----         -----         ----         -------
     0   0 0 0     -0.000000     -7.000000     -7.000000     14.000000

     1   1 0 0      0.000000      0.000000      0.000000      0.000000
     1   0 1 0     -0.000000     -0.000000     -0.000000      0.000000
     1   0 0 1      0.000000      0.000000      0.000000      0.000000

     2   2 0 0    -10.246175     -5.123169     -5.123169      0.000163
     2   1 1 0     -0.013395      0.005585      0.005585     -0.024564
     2   1 0 1      0.000000      0.000000      0.000000      0.000000
     2   0 2 0     -5.323502    -20.444772    -20.444772     35.566042
     2   0 1 1      0.000000      0.000000      0.000000      0.000000

 Total times  cpu:       11.5s     wall:       12.4s
