 Output coordinates in angstroms (scale by  1.889725989 to convert to a.u.)

  No.       Tag          Charge          X              Y              Z
 ---- ---------------- ---------- -------------- -------------- --------------
    1 C                    6.0000    -0.51343561     1.65010179     0.00000000
    2 C                    6.0000     0.25664037     2.58191431     0.00000000
    3 H                    1.0000    -1.18390607     0.82061001     0.00000000
    4 H                    1.0000     0.92992104     3.40835068     0.00000000
    5 C                    6.0000     0.51343561    -1.65010179     0.00000000
    6 C                    6.0000    -0.25664037    -2.58191431     0.00000000
    7 H                    1.0000     1.18390607    -0.82061001     0.00000000
    8 H                    1.0000    -0.92992104    -3.40835068     0.00000000

         Total DFT energy =     -154.699562859824

                       DFT Final Molecular Orbital Analysis
                       ------------------------------------

 Vector    4  Occ=2.000000D+00  E=-1.002239D+01  Symmetry=bu

 Vector    5  Occ=2.000000D+00  E=-7.056985D-01  Symmetry=ag

 Vector    6  Occ=2.000000D+00  E=-7.037034D-01  Symmetry=bu

 Vector    7  Occ=2.000000D+00  E=-5.374028D-01  Symmetry=ag

 Vector    8  Occ=2.000000D+00  E=-5.320909D-01  Symmetry=bu

 Vector    9  Occ=2.000000D+00  E=-4.613962D-01  Symmetry=ag

 Vector   10  Occ=2.000000D+00  E=-4.580969D-01  Symmetry=bu

 Vector   11  Occ=2.000000D+00  E=-2.718794D-01  Symmetry=ag

 Vector   12  Occ=2.000000D+00  E=-2.683860D-01  Symmetry=au

 Vector   13  Occ=2.000000D+00  E=-2.656093D-01  Symmetry=bg

 Vector   14  Occ=2.000000D+00  E=-2.637311D-01  Symmetry=bu

 Vector   15  Occ=0.000000D+00  E=-2.106067D-02  Symmetry=ag

 Vector   16  Occ=0.000000D+00  E=-1.280648D-02  Symmetry=au

 Vector   17  Occ=0.000000D+00  E=-1.274836D-02  Symmetry=ag

 Vector   18  Occ=0.000000D+00  E=-9.351563D-03  Symmetry=bu

 Vector   19  Occ=0.000000D+00  E=-5.396813D-03  Symmetry=bg

 Vector   20  Occ=0.000000D+00  E= 2.745783D-03  Symmetry=bu

 Vector   21  Occ=0.000000D+00  E= 1.026540D-02  Symmetry=bu

 Vector   22  Occ=0.000000D+00  E= 1.040599D-02  Symmetry=ag

 Vector   23  Occ=0.000000D+00  E= 4.209959D-02  Symmetry=au

 Vector   24  Occ=0.000000D+00  E= 4.949416D-02  Symmetry=bu

 Vector   25  Occ=0.000000D+00  E= 6.013105D-02  Symmetry=ag

 Vector   26  Occ=0.000000D+00  E= 7.302542D-02  Symmetry=bg

 Vector   27  Occ=0.000000D+00  E= 8.882169D-02  Symmetry=ag

 Vector   28  Occ=0.000000D+00  E= 1.000314D-01  Symmetry=bu

 Vector   29  Occ=0.000000D+00  E= 1.021991D-01  Symmetry=ag

 Vector   30  Occ=0.000000D+00  E= 1.079422D-01  Symmetry=bg

 Vector   31  Occ=0.000000D+00  E= 1.091544D-01  Symmetry=bu

 Vector   32  Occ=0.000000D+00  E= 1.173641D-01  Symmetry=ag

 Vector   33  Occ=0.000000D+00  E= 1.213551D-01  Symmetry=bu

 Vector   34  Occ=0.000000D+00  E= 1.246495D-01  Symmetry=au

 Vector   35  Occ=0.000000D+00  E= 1.318639D-01  Symmetry=bu

 Vector   36  Occ=0.000000D+00  E= 1.344662D-01  Symmetry=ag

 Vector   37  Occ=0.000000D+00  E= 1.485461D-01  Symmetry=ag

 Vector   38  Occ=0.000000D+00  E= 1.623290D-01  Symmetry=bu

 Vector   39  Occ=0.000000D+00  E= 2.228024D-01  Symmetry=bu

 Vector   40  Occ=0.000000D+00  E= 2.301690D-01  Symmetry=ag

 Vector   41  Occ=0.000000D+00  E= 2.730561D-01  Symmetry=ag

 Vector   42  Occ=0.000000D+00  E= 2.782339D-01  Symmetry=au

 Vector   43  Occ=0.000000D+00  E= 3.058393D-01  Symmetry=bu

 Vector   44  Occ=0.000000D+00  E= 3.151659D-01  Symmetry=ag

 Vector   45  Occ=0.000000D+00  E= 3.178118D-01  Symmetry=bg

 Vector   46  Occ=0.000000D+00  E= 3.429317D-01  Symmetry=bu

 Vector   47  Occ=0.000000D+00  E= 3.507355D-01  Symmetry=ag

 Vector   48  Occ=0.000000D+00  E= 3.552026D-01  Symmetry=bu

 Vector   49  Occ=0.000000D+00  E= 3.577148D-01  Symmetry=bg

 Vector   50  Occ=0.000000D+00  E= 3.659683D-01  Symmetry=au

 Vector   51  Occ=0.000000D+00  E= 3.898996D-01  Symmetry=ag

 Vector   52  Occ=0.000000D+00  E= 4.059105D-01  Symmetry=bu

 Vector   53  Occ=0.000000D+00  E= 4.440958D-01  Symmetry=au

 Vector   54  Occ=0.000000D+00  E= 4.537388D-01  Symmetry=ag

 Vector   55  Occ=0.000000D+00  E= 4.779785D-01  Symmetry=ag

 Vector   56  Occ=0.000000D+00  E= 4.830987D-01  Symmetry=bu

 Vector   57  Occ=0.000000D+00  E= 4.879244D-01  Symmetry=bg

 Vector   58  Occ=0.000000D+00  E= 4.918624D-01  Symmetry=bu

 Vector   59  Occ=0.000000D+00  E= 5.018617D-01  Symmetry=au

     Multipole analysis of the density
     ---------------------------------

     L   x y z        total         alpha         beta         nuclear
     -   - - -        -----         -----         ----         -------
     0   0 0 0      0.000000    -14.000000    -14.000000     28.000000

     1   1 0 0      0.000000      0.000000      0.000000      0.000000
     1   0 1 0     -0.000000     -0.000000     -0.000000      0.000000
     1   0 0 1      0.000000      0.000000      0.000000      0.000000

     2   2 0 0    -16.483226    -23.394600    -23.394600     30.305974
     2   1 1 0      4.581194     -1.603243     -1.603243      7.787680
     2   1 0 1      0.000000      0.000000      0.000000      0.000000
     2   0 2 0    -14.660947   -252.394617   -252.394617    490.128288
     2   0 1 1      0.000000      0.000000      0.000000      0.000000

 Total times  cpu:       81.2s     wall:       90.5s
