 Output coordinates in angstroms (scale by  1.889725989 to convert to a.u.)

  No.       Tag          Charge          X              Y              Z
 ---- ---------------- ---------- -------------- -------------- --------------
    1 C                    6.0000     0.00000000     0.66808000     0.00000000
    2 C                    6.0000     0.00000000    -0.66808000     0.00000000
    3 H                    1.0000     0.92453000     1.23492000     0.00000000
    4 H                    1.0000    -0.92453000     1.23492000     0.00000000
    5 H                    1.0000     0.92453000    -1.23492000     0.00000000
    6 H                    1.0000    -0.92453000    -1.23492000     0.00000000

         Total DFT energy =      -78.608778584657

                       DFT Final Molecular Orbital Analysis
                       ------------------------------------

 Vector    1  Occ=2.000000D+00  E=-1.001534D+01  Symmetry=ag

 Vector    2  Occ=2.000000D+00  E=-1.001468D+01  Symmetry=b2u

 Vector    3  Occ=2.000000D+00  E=-7.108758D-01  Symmetry=ag

 Vector    4  Occ=2.000000D+00  E=-5.427674D-01  Symmetry=b2u

 Vector    5  Occ=2.000000D+00  E=-4.343132D-01  Symmetry=b3u

 Vector    6  Occ=2.000000D+00  E=-3.814332D-01  Symmetry=ag

 Vector    7  Occ=2.000000D+00  E=-3.275549D-01  Symmetry=b1g

 Vector    8  Occ=2.000000D+00  E=-2.495176D-01  Symmetry=b1u

 Vector    9  Occ=0.000000D+00  E=-3.232425D-02  Symmetry=b3g

 Vector   10  Occ=0.000000D+00  E=-1.364483D-02  Symmetry=ag

 Vector   11  Occ=0.000000D+00  E= 4.463323D-03  Symmetry=b2u

 Vector   12  Occ=0.000000D+00  E= 7.328337D-03  Symmetry=b3u

 Vector   13  Occ=0.000000D+00  E= 3.841866D-02  Symmetry=b1g

 Vector   14  Occ=0.000000D+00  E= 5.281220D-02  Symmetry=b1u

 Vector   15  Occ=0.000000D+00  E= 6.422479D-02  Symmetry=ag

 Vector   16  Occ=0.000000D+00  E= 9.045170D-02  Symmetry=ag

 Vector   17  Occ=0.000000D+00  E= 1.045400D-01  Symmetry=b3g

 Vector   18  Occ=0.000000D+00  E= 1.134469D-01  Symmetry=b2u

 Vector   19  Occ=0.000000D+00  E= 1.264884D-01  Symmetry=ag

 Vector   20  Occ=0.000000D+00  E= 1.274188D-01  Symmetry=b3u

 Vector   21  Occ=0.000000D+00  E= 1.335383D-01  Symmetry=b2u

 Vector   22  Occ=0.000000D+00  E= 1.427044D-01  Symmetry=b3u

 Vector   23  Occ=0.000000D+00  E= 1.522351D-01  Symmetry=b1g

 Vector   24  Occ=0.000000D+00  E= 1.682267D-01  Symmetry=b2u

 Vector   25  Occ=0.000000D+00  E= 2.488437D-01  Symmetry=b2g

 Vector   26  Occ=0.000000D+00  E= 3.061156D-01  Symmetry=ag

 Vector   27  Occ=0.000000D+00  E= 3.082028D-01  Symmetry=b1g

 Vector   28  Occ=0.000000D+00  E= 3.270139D-01  Symmetry=b2u

 Vector   29  Occ=0.000000D+00  E= 3.283227D-01  Symmetry=b3u

 Vector   30  Occ=0.000000D+00  E= 3.480836D-01  Symmetry=ag

 Vector   31  Occ=0.000000D+00  E= 3.751073D-01  Symmetry=au

 Vector   32  Occ=0.000000D+00  E= 3.848315D-01  Symmetry=b1u

 Vector   33  Occ=0.000000D+00  E= 3.939239D-01  Symmetry=b2u

 Vector   34  Occ=0.000000D+00  E= 4.619818D-01  Symmetry=ag

 Vector   35  Occ=0.000000D+00  E= 4.795212D-01  Symmetry=b3u

 Vector   36  Occ=0.000000D+00  E= 4.848447D-01  Symmetry=b2u

 Vector   37  Occ=0.000000D+00  E= 5.102071D-01  Symmetry=b3g

     Multipole analysis of the density
     ---------------------------------

     L   x y z        total         alpha         beta         nuclear
     -   - - -        -----         -----         ----         -------
     0   0 0 0     -0.000000     -8.000000     -8.000000     16.000000

     1   1 0 0     -0.000000     -0.000000     -0.000000      0.000000
     1   0 1 0      0.000000      0.000000      0.000000      0.000000
     1   0 0 1      0.000000      0.000000      0.000000      0.000000

     2   2 0 0     -9.318261    -10.763906    -10.763906     12.209551
     2   1 1 0     -0.000000     -0.000000     -0.000000      0.000000
     2   1 0 1      0.000000      0.000000      0.000000      0.000000
     2   0 2 0     -9.251094    -25.080747    -25.080747     40.910399
     2   0 1 1      0.000000      0.000000      0.000000      0.000000

 Total times  cpu:       15.5s     wall:       17.2s
