 Output coordinates in angstroms (scale by  1.889725989 to convert to a.u.)

  No.       Tag          Charge          X              Y              Z
 ---- ---------------- ---------- -------------- -------------- --------------
    1 C                    6.0000     0.47261000     0.47261000    -1.85777000
    2 C                    6.0000    -0.47261000    -0.47261000    -1.85777000
    3 H                    1.0000     0.87437500     0.87437500    -0.93377000
    4 H                    1.0000     0.87163500     0.87163500    -2.78382000
    5 H                    1.0000    -0.87163500    -0.87163500    -2.78382000
    6 H                    1.0000    -0.87437500    -0.87437500    -0.93377000
    7 C                    6.0000    -0.47261000     0.47261000     1.85777000
    8 C                    6.0000     0.47261000    -0.47261000     1.85777000
    9 H                    1.0000    -0.87163500     0.87163500     2.78382000
   10 H                    1.0000    -0.87437500     0.87437500     0.93377000
   11 H                    1.0000     0.87437500    -0.87437500     0.93377000
   12 H                    1.0000     0.87163500    -0.87163500     2.78382000

         Total DFT energy =     -157.217554943135

                       DFT Final Molecular Orbital Analysis
                       ------------------------------------

 Vector    4  Occ=2.000000D+00  E=-1.001538D+01  Symmetry=e

 Vector    5  Occ=2.000000D+00  E=-7.143111D-01  Symmetry=a1

 Vector    6  Occ=2.000000D+00  E=-7.097060D-01  Symmetry=b2

 Vector    7  Occ=2.000000D+00  E=-5.435345D-01  Symmetry=e

 Vector    8  Occ=2.000000D+00  E=-5.435345D-01  Symmetry=e

 Vector    9  Occ=2.000000D+00  E=-4.452759D-01  Symmetry=a1

 Vector   10  Occ=2.000000D+00  E=-4.259608D-01  Symmetry=b2

 Vector   11  Occ=2.000000D+00  E=-3.828572D-01  Symmetry=a1

 Vector   12  Occ=2.000000D+00  E=-3.805910D-01  Symmetry=b2

 Vector   13  Occ=2.000000D+00  E=-3.289799D-01  Symmetry=e

 Vector   14  Occ=2.000000D+00  E=-3.289799D-01  Symmetry=e

 Vector   15  Occ=2.000000D+00  E=-2.505175D-01  Symmetry=e

 Vector   16  Occ=2.000000D+00  E=-2.505175D-01  Symmetry=e

 Vector   17  Occ=0.000000D+00  E=-3.911778D-02  Symmetry=b1

 Vector   18  Occ=0.000000D+00  E=-2.791834D-02  Symmetry=a2

 Vector   19  Occ=0.000000D+00  E=-1.617053D-02  Symmetry=a1

 Vector   20  Occ=0.000000D+00  E=-5.584089D-03  Symmetry=b2

 Vector   21  Occ=0.000000D+00  E= 3.911665D-03  Symmetry=e

 Vector   22  Occ=0.000000D+00  E= 3.911665D-03  Symmetry=e

 Vector   23  Occ=0.000000D+00  E= 1.772177D-02  Symmetry=a1

 Vector   24  Occ=0.000000D+00  E= 3.644911D-02  Symmetry=e

 Vector   25  Occ=0.000000D+00  E= 3.644911D-02  Symmetry=e

 Vector   26  Occ=0.000000D+00  E= 4.437393D-02  Symmetry=b2

 Vector   27  Occ=0.000000D+00  E= 6.934490D-02  Symmetry=a1

 Vector   28  Occ=0.000000D+00  E= 8.237120D-02  Symmetry=e

 Vector   29  Occ=0.000000D+00  E= 8.237120D-02  Symmetry=e

 Vector   30  Occ=0.000000D+00  E= 8.430827D-02  Symmetry=b2

 Vector   31  Occ=0.000000D+00  E= 9.410924D-02  Symmetry=b1

 Vector   32  Occ=0.000000D+00  E= 1.096475D-01  Symmetry=b2

 Vector   33  Occ=0.000000D+00  E= 1.118742D-01  Symmetry=a1

 Vector   34  Occ=0.000000D+00  E= 1.223957D-01  Symmetry=a2

 Vector   35  Occ=0.000000D+00  E= 1.238915D-01  Symmetry=b2

 Vector   36  Occ=0.000000D+00  E= 1.244664D-01  Symmetry=a1

 Vector   37  Occ=0.000000D+00  E= 1.252339D-01  Symmetry=e

 Vector   38  Occ=0.000000D+00  E= 1.252339D-01  Symmetry=e

 Vector   39  Occ=0.000000D+00  E= 1.283063D-01  Symmetry=e

 Vector   40  Occ=0.000000D+00  E= 1.283063D-01  Symmetry=e

 Vector   41  Occ=0.000000D+00  E= 1.422592D-01  Symmetry=a1

 Vector   42  Occ=0.000000D+00  E= 1.522320D-01  Symmetry=e

 Vector   43  Occ=0.000000D+00  E= 1.522320D-01  Symmetry=e

 Vector   44  Occ=0.000000D+00  E= 1.631230D-01  Symmetry=b2

 Vector   45  Occ=0.000000D+00  E= 1.648362D-01  Symmetry=e

 Vector   46  Occ=0.000000D+00  E= 1.648362D-01  Symmetry=e

 Vector   47  Occ=0.000000D+00  E= 2.096543D-01  Symmetry=a1

 Vector   48  Occ=0.000000D+00  E= 2.744390D-01  Symmetry=a1

 Vector   49  Occ=0.000000D+00  E= 2.761724D-01  Symmetry=b2

 Vector   50  Occ=0.000000D+00  E= 2.964810D-01  Symmetry=e

 Vector   51  Occ=0.000000D+00  E= 2.964810D-01  Symmetry=e

 Vector   52  Occ=0.000000D+00  E= 3.095003D-01  Symmetry=b2

 Vector   53  Occ=0.000000D+00  E= 3.156707D-01  Symmetry=e

 Vector   54  Occ=0.000000D+00  E= 3.156707D-01  Symmetry=e

 Vector   55  Occ=0.000000D+00  E= 3.322146D-01  Symmetry=b1

 Vector   56  Occ=0.000000D+00  E= 3.347036D-01  Symmetry=b2

 Vector   57  Occ=0.000000D+00  E= 3.400966D-01  Symmetry=e

 Vector   58  Occ=0.000000D+00  E= 3.400966D-01  Symmetry=e

 Vector   59  Occ=0.000000D+00  E= 3.498978D-01  Symmetry=a1

 Vector   60  Occ=0.000000D+00  E= 3.919760D-01  Symmetry=a1

 Vector   61  Occ=0.000000D+00  E= 3.942822D-01  Symmetry=e

 Vector   62  Occ=0.000000D+00  E= 3.942822D-01  Symmetry=e

 Vector   63  Occ=0.000000D+00  E= 4.076185D-01  Symmetry=e

 Vector   64  Occ=0.000000D+00  E= 4.076185D-01  Symmetry=e

 Vector   65  Occ=0.000000D+00  E= 4.339809D-01  Symmetry=a2

 Vector   66  Occ=0.000000D+00  E= 4.543182D-01  Symmetry=b2

 Vector   67  Occ=0.000000D+00  E= 4.648884D-01  Symmetry=a1

 Vector   68  Occ=0.000000D+00  E= 4.784299D-01  Symmetry=e

 Vector   69  Occ=0.000000D+00  E= 4.784299D-01  Symmetry=e

 Vector   70  Occ=0.000000D+00  E= 4.934981D-01  Symmetry=b2

 Vector   71  Occ=0.000000D+00  E= 4.938443D-01  Symmetry=b1

 Vector   72  Occ=0.000000D+00  E= 4.988953D-01  Symmetry=a1

 Vector   73  Occ=0.000000D+00  E= 5.232029D-01  Symmetry=a2

     Multipole analysis of the density
     ---------------------------------

     L   x y z        total         alpha         beta         nuclear
     -   - - -        -----         -----         ----         -------
     0   0 0 0      0.000000    -16.000000    -16.000000     32.000000

     1   1 0 0     -0.000000     -0.000000     -0.000000      0.000000
     1   0 1 0      0.000000      0.000000      0.000000     -0.000000
     1   0 0 1      0.000000      0.000000      0.000000     -0.000000

     2   2 0 0    -20.905911    -30.911158    -30.911158     40.916405
     2   1 1 0     -0.000000     -0.000000     -0.000000      0.000000
     2   1 0 1     -0.000000     -0.000000     -0.000000      0.000000
     2   0 2 0    -20.905911    -30.911158    -30.911158     40.916405
     2   0 1 1     -0.000000     -0.000000     -0.000000      0.000000

 Total times  cpu:      102.6s     wall:      117.0s
