 Output coordinates in angstroms (scale by  1.889725989 to convert to a.u.)

  No.       Tag          Charge          X              Y              Z
 ---- ---------------- ---------- -------------- -------------- --------------
    1 C                    6.0000     0.00000000    -0.66839000     1.95281176
    2 C                    6.0000     0.00000000     0.66839000     1.95281176
    3 H                    1.0000    -0.92519000    -1.23398000     1.95227426
    4 H                    1.0000     0.92519000    -1.23398000     1.95227426
    5 H                    1.0000    -0.92519000     1.23398000     1.95227426
    6 H                    1.0000     0.92519000     1.23398000     1.95227426
    7 F                    9.0000     0.00000000     0.00000000    -1.02573324
    8 F                    9.0000     0.00000000     0.00000000    -2.44569324

         Total DFT energy =     -278.139145272154

                       DFT Final Molecular Orbital Analysis
                       ------------------------------------

 Vector    4  Occ=2.000000D+00  E=-1.002711D+01  Symmetry=b2

 Vector    5  Occ=2.000000D+00  E=-1.252049D+00  Symmetry=a1

 Vector    6  Occ=2.000000D+00  E=-1.029975D+00  Symmetry=a1

 Vector    7  Occ=2.000000D+00  E=-7.224900D-01  Symmetry=a1

 Vector    8  Occ=2.000000D+00  E=-5.525313D-01  Symmetry=b2

 Vector    9  Occ=2.000000D+00  E=-5.423477D-01  Symmetry=a1

 Vector   10  Occ=2.000000D+00  E=-4.581401D-01  Symmetry=b1

 Vector   11  Occ=2.000000D+00  E=-4.580718D-01  Symmetry=b2

 Vector   12  Occ=2.000000D+00  E=-4.443558D-01  Symmetry=b1

 Vector   13  Occ=2.000000D+00  E=-3.917665D-01  Symmetry=a1

 Vector   14  Occ=2.000000D+00  E=-3.371023D-01  Symmetry=a2

 Vector   15  Occ=2.000000D+00  E=-3.344950D-01  Symmetry=b2

 Vector   16  Occ=2.000000D+00  E=-3.343718D-01  Symmetry=b1

 Vector   17  Occ=2.000000D+00  E=-2.615692D-01  Symmetry=a1

 Vector   18  Occ=0.000000D+00  E=-1.828002D-01  Symmetry=a1

 Vector   19  Occ=0.000000D+00  E=-4.130963D-02  Symmetry=b2

 Vector   20  Occ=0.000000D+00  E=-1.647257D-02  Symmetry=a1

 Vector   21  Occ=0.000000D+00  E= 1.150244D-03  Symmetry=b2

 Vector   22  Occ=0.000000D+00  E= 3.960302D-03  Symmetry=b1

 Vector   23  Occ=0.000000D+00  E= 3.558022D-02  Symmetry=a2

 Vector   24  Occ=0.000000D+00  E= 4.347171D-02  Symmetry=a1

 Vector   25  Occ=0.000000D+00  E= 5.963403D-02  Symmetry=a1

 Vector   26  Occ=0.000000D+00  E= 9.254936D-02  Symmetry=a1

 Vector   27  Occ=0.000000D+00  E= 9.477006D-02  Symmetry=b2

 Vector   28  Occ=0.000000D+00  E= 1.099792D-01  Symmetry=b2

 Vector   29  Occ=0.000000D+00  E= 1.154803D-01  Symmetry=a1

 Vector   30  Occ=0.000000D+00  E= 1.222769D-01  Symmetry=b1

 Vector   31  Occ=0.000000D+00  E= 1.278009D-01  Symmetry=b2

 Vector   32  Occ=0.000000D+00  E= 1.357113D-01  Symmetry=b1

 Vector   33  Occ=0.000000D+00  E= 1.467922D-01  Symmetry=a2

 Vector   34  Occ=0.000000D+00  E= 1.519855D-01  Symmetry=a1

 Vector   35  Occ=0.000000D+00  E= 1.568945D-01  Symmetry=b2

 Vector   36  Occ=0.000000D+00  E= 1.788192D-01  Symmetry=b1

 Vector   37  Occ=0.000000D+00  E= 2.190484D-01  Symmetry=b1

 Vector   38  Occ=0.000000D+00  E= 2.362306D-01  Symmetry=b2

 Vector   39  Occ=0.000000D+00  E= 2.513393D-01  Symmetry=a1

 Vector   40  Occ=0.000000D+00  E= 2.997275D-01  Symmetry=a1

 Vector   41  Occ=0.000000D+00  E= 3.009323D-01  Symmetry=a2

 Vector   42  Occ=0.000000D+00  E= 3.109857D-01  Symmetry=a1

 Vector   43  Occ=0.000000D+00  E= 3.152849D-01  Symmetry=b2

 Vector   44  Occ=0.000000D+00  E= 3.293035D-01  Symmetry=b1

 Vector   45  Occ=0.000000D+00  E= 3.483754D-01  Symmetry=b1

 Vector   46  Occ=0.000000D+00  E= 3.685847D-01  Symmetry=a2

 Vector   47  Occ=0.000000D+00  E= 3.688868D-01  Symmetry=b2

 Vector   48  Occ=0.000000D+00  E= 3.696278D-01  Symmetry=a1

 Vector   49  Occ=0.000000D+00  E= 3.944351D-01  Symmetry=b2

 Vector   50  Occ=0.000000D+00  E= 4.140425D-01  Symmetry=a1

 Vector   51  Occ=0.000000D+00  E= 4.600818D-01  Symmetry=a1

 Vector   52  Occ=0.000000D+00  E= 4.648886D-01  Symmetry=a1

 Vector   53  Occ=0.000000D+00  E= 4.842348D-01  Symmetry=b1

 Vector   54  Occ=0.000000D+00  E= 4.845452D-01  Symmetry=b2

 Vector   55  Occ=0.000000D+00  E= 5.121224D-01  Symmetry=b2

     Multipole analysis of the density
     ---------------------------------

     L   x y z        total         alpha         beta         nuclear
     -   - - -        -----         -----         ----         -------
     0   0 0 0     -0.000000    -17.000000    -17.000000     34.000000

     1   1 0 0      0.000000      0.000000      0.000000     -0.000000
     1   0 1 0     -0.000000     -0.000000     -0.000000      0.000000
     1   0 0 1      0.386434      0.193217      0.193217     -0.000000

     2   2 0 0    -16.501918    -14.364453    -14.364453     12.226989
     2   1 1 0     -0.000000      0.000000      0.000000     -0.000000
     2   1 0 1      0.000000      0.000000      0.000000     -0.000000
     2   0 2 0    -16.345869    -28.620436    -28.620436     40.895003
     2   0 1 1      0.000000      0.000000      0.000000     -0.000000

 Total times  cpu:      102.9s     wall:      115.0s
