 Output coordinates in angstroms (scale by  1.889725989 to convert to a.u.)

  No.       Tag          Charge          X              Y              Z
 ---- ---------------- ---------- -------------- -------------- --------------
    1 C                    6.0000    -0.01255551     1.15243630     0.00000000
    2 S                   16.0000    -0.06824630    -0.66317979     0.00000000
    3 H                    1.0000     1.25856190    -0.86004068     0.00000000
    4 H                    1.0000    -1.04953910     1.48949742     0.00000000
    5 H                    1.0000     0.47912554     1.53340104     0.89371000
    6 H                    1.0000     0.47912554     1.53340104    -0.89371000

         Total DFT energy =     -438.602905658476

                       DFT Final Molecular Orbital Analysis
                       ------------------------------------

 Vector    3  Occ=2.000000D+00  E=-7.749279D+00  Symmetry=a'

 Vector    4  Occ=2.000000D+00  E=-5.711130D+00  Symmetry=a'

 Vector    5  Occ=2.000000D+00  E=-5.707132D+00  Symmetry=a'

 Vector    6  Occ=2.000000D+00  E=-5.699543D+00  Symmetry=a"

 Vector    7  Occ=2.000000D+00  E=-7.301577D-01  Symmetry=a'

 Vector    8  Occ=2.000000D+00  E=-6.029329D-01  Symmetry=a'

 Vector    9  Occ=2.000000D+00  E=-4.177444D-01  Symmetry=a'

 Vector   10  Occ=2.000000D+00  E=-3.979807D-01  Symmetry=a"

 Vector   11  Occ=2.000000D+00  E=-3.610015D-01  Symmetry=a'

 Vector   12  Occ=2.000000D+00  E=-3.064533D-01  Symmetry=a'

 Vector   13  Occ=2.000000D+00  E=-2.123974D-01  Symmetry=a"

 Vector   14  Occ=0.000000D+00  E=-3.325750D-02  Symmetry=a'

 Vector   15  Occ=0.000000D+00  E=-1.090119D-02  Symmetry=a'

 Vector   16  Occ=0.000000D+00  E= 9.356314D-03  Symmetry=a'

 Vector   17  Occ=0.000000D+00  E= 1.391277D-02  Symmetry=a"

 Vector   18  Occ=0.000000D+00  E= 1.575232D-02  Symmetry=a'

 Vector   19  Occ=0.000000D+00  E= 5.268939D-02  Symmetry=a'

 Vector   20  Occ=0.000000D+00  E= 5.916063D-02  Symmetry=a'

 Vector   21  Occ=0.000000D+00  E= 6.174140D-02  Symmetry=a"

 Vector   22  Occ=0.000000D+00  E= 6.233353D-02  Symmetry=a'

 Vector   23  Occ=0.000000D+00  E= 7.469475D-02  Symmetry=a"

 Vector   24  Occ=0.000000D+00  E= 8.323002D-02  Symmetry=a'

 Vector   25  Occ=0.000000D+00  E= 9.958851D-02  Symmetry=a'

 Vector   26  Occ=0.000000D+00  E= 1.184894D-01  Symmetry=a'

 Vector   27  Occ=0.000000D+00  E= 1.245112D-01  Symmetry=a'

 Vector   28  Occ=0.000000D+00  E= 1.467191D-01  Symmetry=a'

 Vector   29  Occ=0.000000D+00  E= 1.487138D-01  Symmetry=a"

 Vector   30  Occ=0.000000D+00  E= 2.024377D-01  Symmetry=a"

 Vector   31  Occ=0.000000D+00  E= 2.140567D-01  Symmetry=a'

 Vector   32  Occ=0.000000D+00  E= 2.316639D-01  Symmetry=a'

 Vector   33  Occ=0.000000D+00  E= 2.435359D-01  Symmetry=a"

 Vector   34  Occ=0.000000D+00  E= 2.520194D-01  Symmetry=a'

 Vector   35  Occ=0.000000D+00  E= 2.829413D-01  Symmetry=a'

 Vector   36  Occ=0.000000D+00  E= 2.904793D-01  Symmetry=a'

 Vector   37  Occ=0.000000D+00  E= 3.057243D-01  Symmetry=a"

 Vector   38  Occ=0.000000D+00  E= 3.165291D-01  Symmetry=a'

 Vector   39  Occ=0.000000D+00  E= 3.174711D-01  Symmetry=a"

 Vector   40  Occ=0.000000D+00  E= 3.856464D-01  Symmetry=a'

 Vector   41  Occ=0.000000D+00  E= 4.310708D-01  Symmetry=a'

 Vector   42  Occ=0.000000D+00  E= 4.494180D-01  Symmetry=a"

 Vector   43  Occ=0.000000D+00  E= 4.527816D-01  Symmetry=a'

 Vector   44  Occ=0.000000D+00  E= 4.787053D-01  Symmetry=a"

 Vector   45  Occ=0.000000D+00  E= 4.809660D-01  Symmetry=a'

 Vector   46  Occ=0.000000D+00  E= 4.834969D-01  Symmetry=a'

 Vector   47  Occ=0.000000D+00  E= 5.288229D-01  Symmetry=a'

     Multipole analysis of the density
     ---------------------------------

     L   x y z        total         alpha         beta         nuclear
     -   - - -        -----         -----         ----         -------
     0   0 0 0     -0.000000    -13.000000    -13.000000     26.000000

     1   1 0 0      0.277346      0.138673      0.138673      0.000000
     1   0 1 0      0.545185      0.272593      0.272593     -0.000000
     1   0 0 1      0.000000      0.000000      0.000000      0.000000

     2   2 0 0    -14.490739    -12.994961    -12.994961     11.499183
     2   1 1 0     -0.890834      0.516950      0.516950     -1.924734
     2   1 0 1     -0.000000     -0.000000     -0.000000      0.000000
     2   0 2 0    -15.196886    -48.070182    -48.070182     80.943478
     2   0 1 1     -0.000000     -0.000000     -0.000000      0.000000

 Total times  cpu:       56.2s     wall:       61.4s
