 Output coordinates in angstroms (scale by  1.889725989 to convert to a.u.)

  No.       Tag          Charge          X              Y              Z
 ---- ---------------- ---------- -------------- -------------- --------------
    1 C                    6.0000     0.00000000     0.00000000     1.80728000
    2 H                    1.0000    -0.72594561     0.72594561     1.44240000
    3 H                    1.0000    -0.26571453    -0.99166014     1.44240000
    4 H                    1.0000     0.00000000     0.00000000     2.89684000
    5 H                    1.0000     0.99166014     0.26571453     1.44240000
    6 C                    6.0000     0.00000000     0.00000000    -1.80728000
    7 H                    1.0000     0.26571453     0.99166014    -1.44240000
    8 H                    1.0000     0.00000000     0.00000000    -2.89684000
    9 H                    1.0000    -0.99166014    -0.26571453    -1.44240000
   10 H                    1.0000     0.72594561    -0.72594561    -1.44240000

         Total DFT energy =      -81.055509872775

                       DFT Final Molecular Orbital Analysis
                       ------------------------------------

 Vector    1  Occ=2.000000D+00  E=-9.997426D+00  Symmetry=a1g

 Vector    2  Occ=2.000000D+00  E=-9.997426D+00  Symmetry=a2u

 Vector    3  Occ=2.000000D+00  E=-6.504721D-01  Symmetry=a1g

 Vector    4  Occ=2.000000D+00  E=-6.458644D-01  Symmetry=a2u

 Vector    5  Occ=2.000000D+00  E=-3.637901D-01  Symmetry=a1g

 Vector    6  Occ=2.000000D+00  E=-3.604231D-01  Symmetry=eu

 Vector    7  Occ=2.000000D+00  E=-3.604231D-01  Symmetry=eu

 Vector    8  Occ=2.000000D+00  E=-3.546317D-01  Symmetry=eg

 Vector    9  Occ=2.000000D+00  E=-3.546317D-01  Symmetry=eg

 Vector   10  Occ=2.000000D+00  E=-3.516684D-01  Symmetry=a2u

 Vector   11  Occ=0.000000D+00  E=-2.454712D-02  Symmetry=a1g

 Vector   12  Occ=0.000000D+00  E=-1.587579D-03  Symmetry=a2u

 Vector   13  Occ=0.000000D+00  E= 1.467451D-02  Symmetry=eu

 Vector   14  Occ=0.000000D+00  E= 1.467451D-02  Symmetry=eu

 Vector   15  Occ=0.000000D+00  E= 2.750031D-02  Symmetry=a1g

 Vector   16  Occ=0.000000D+00  E= 4.300367D-02  Symmetry=eg

 Vector   17  Occ=0.000000D+00  E= 4.300367D-02  Symmetry=eg

 Vector   18  Occ=0.000000D+00  E= 5.661409D-02  Symmetry=a2u

 Vector   19  Occ=0.000000D+00  E= 6.123811D-02  Symmetry=eg

 Vector   20  Occ=0.000000D+00  E= 6.123811D-02  Symmetry=eg

 Vector   21  Occ=0.000000D+00  E= 8.625644D-02  Symmetry=a1g

 Vector   22  Occ=0.000000D+00  E= 9.314567D-02  Symmetry=eu

 Vector   23  Occ=0.000000D+00  E= 9.314567D-02  Symmetry=eu

 Vector   24  Occ=0.000000D+00  E= 1.205285D-01  Symmetry=a2u

 Vector   25  Occ=0.000000D+00  E= 1.267342D-01  Symmetry=a1g

 Vector   26  Occ=0.000000D+00  E= 1.594683D-01  Symmetry=eu

 Vector   27  Occ=0.000000D+00  E= 1.594683D-01  Symmetry=eu

 Vector   28  Occ=0.000000D+00  E= 1.599255D-01  Symmetry=a2u

 Vector   29  Occ=0.000000D+00  E= 1.693310D-01  Symmetry=a1g

 Vector   30  Occ=0.000000D+00  E= 1.903092D-01  Symmetry=eg

 Vector   31  Occ=0.000000D+00  E= 1.903092D-01  Symmetry=eg

 Vector   32  Occ=0.000000D+00  E= 2.178987D-01  Symmetry=a2u

 Vector   33  Occ=0.000000D+00  E= 2.434666D-01  Symmetry=a2u

 Vector   34  Occ=0.000000D+00  E= 2.465411D-01  Symmetry=eu

 Vector   35  Occ=0.000000D+00  E= 2.465411D-01  Symmetry=eu

 Vector   36  Occ=0.000000D+00  E= 2.688049D-01  Symmetry=a1g

 Vector   37  Occ=0.000000D+00  E= 2.793418D-01  Symmetry=a1g

 Vector   38  Occ=0.000000D+00  E= 2.898850D-01  Symmetry=eg

 Vector   39  Occ=0.000000D+00  E= 2.898850D-01  Symmetry=eg

 Vector   40  Occ=0.000000D+00  E= 3.029660D-01  Symmetry=eu

 Vector   41  Occ=0.000000D+00  E= 3.029660D-01  Symmetry=eu

 Vector   42  Occ=0.000000D+00  E= 3.281855D-01  Symmetry=eg

 Vector   43  Occ=0.000000D+00  E= 3.281855D-01  Symmetry=eg

 Vector   44  Occ=0.000000D+00  E= 4.298475D-01  Symmetry=a2u

 Vector   45  Occ=0.000000D+00  E= 4.757587D-01  Symmetry=a1g

 Vector   46  Occ=0.000000D+00  E= 4.773237D-01  Symmetry=a1u

 Vector   47  Occ=0.000000D+00  E= 4.897551D-01  Symmetry=a2u

 Vector   48  Occ=0.000000D+00  E= 4.925824D-01  Symmetry=eu

 Vector   49  Occ=0.000000D+00  E= 4.925824D-01  Symmetry=eu

 Vector   50  Occ=0.000000D+00  E= 4.931721D-01  Symmetry=eg

 Vector   51  Occ=0.000000D+00  E= 4.931721D-01  Symmetry=eg

 Vector   52  Occ=0.000000D+00  E= 5.119221D-01  Symmetry=a1g

     Multipole analysis of the density
     ---------------------------------

     L   x y z        total         alpha         beta         nuclear
     -   - - -        -----         -----         ----         -------
     0   0 0 0     -0.000000    -10.000000    -10.000000     20.000000

     1   1 0 0      0.000000      0.000000      0.000000     -0.000000
     1   0 1 0      0.000000      0.000000      0.000000      0.000000
     1   0 0 1      0.000000      0.000000      0.000000      0.000000

     2   2 0 0    -12.638190    -11.964916    -11.964916     11.291642
     2   1 1 0      0.000000      0.000000      0.000000     -0.000000
     2   1 0 1     -0.000000     -0.000000     -0.000000     -0.000000
     2   0 2 0    -12.638190    -11.964916    -11.964916     11.291642
     2   0 1 1     -0.000000     -0.000000     -0.000000      0.000000

 Total times  cpu:       35.4s     wall:       38.4s
