 Output coordinates in angstroms (scale by  1.889725989 to convert to a.u.)

  No.       Tag          Charge          X              Y              Z
 ---- ---------------- ---------- -------------- -------------- --------------
    1 C                    6.0000     0.00000000     0.00000000     0.00000000
    2 H                    1.0000     0.62912000     0.62912000     0.62912000
    3 H                    1.0000    -0.62912000    -0.62912000     0.62912000
    4 H                    1.0000     0.62912000    -0.62912000    -0.62912000
    5 H                    1.0000    -0.62912000     0.62912000    -0.62912000

         Total DFT energy =      -40.527920434744

                       DFT Final Molecular Orbital Analysis
                       ------------------------------------

 Vector    1  Occ=2.000000D+00  E=-9.998241D+00  Symmetry=a1

 Vector    2  Occ=2.000000D+00  E=-6.487625D-01  Symmetry=a1

 Vector    3  Occ=2.000000D+00  E=-3.582183D-01  Symmetry=t2

 Vector    4  Occ=2.000000D+00  E=-3.582183D-01  Symmetry=t2

 Vector    5  Occ=2.000000D+00  E=-3.582183D-01  Symmetry=t2

 Vector    6  Occ=0.000000D+00  E=-1.799634D-02  Symmetry=a1

 Vector    7  Occ=0.000000D+00  E= 2.421680D-02  Symmetry=t2

 Vector    8  Occ=0.000000D+00  E= 2.421680D-02  Symmetry=t2

 Vector    9  Occ=0.000000D+00  E= 2.421680D-02  Symmetry=t2

 Vector   10  Occ=0.000000D+00  E= 7.476999D-02  Symmetry=t2

 Vector   11  Occ=0.000000D+00  E= 7.476999D-02  Symmetry=t2

 Vector   12  Occ=0.000000D+00  E= 7.476999D-02  Symmetry=t2

 Vector   13  Occ=0.000000D+00  E= 1.022839D-01  Symmetry=a1

 Vector   14  Occ=0.000000D+00  E= 1.742432D-01  Symmetry=t2

 Vector   15  Occ=0.000000D+00  E= 1.742432D-01  Symmetry=t2

 Vector   16  Occ=0.000000D+00  E= 1.742432D-01  Symmetry=t2

 Vector   17  Occ=0.000000D+00  E= 2.303987D-01  Symmetry=a1

 Vector   18  Occ=0.000000D+00  E= 2.711105D-01  Symmetry=e

 Vector   19  Occ=0.000000D+00  E= 2.711105D-01  Symmetry=e

 Vector   20  Occ=0.000000D+00  E= 2.940579D-01  Symmetry=t2

 Vector   21  Occ=0.000000D+00  E= 2.940579D-01  Symmetry=t2

 Vector   22  Occ=0.000000D+00  E= 2.940579D-01  Symmetry=t2

 Vector   23  Occ=0.000000D+00  E= 4.712505D-01  Symmetry=a1

 Vector   24  Occ=0.000000D+00  E= 5.034928D-01  Symmetry=t1

     Multipole analysis of the density
     ---------------------------------

     L   x y z        total         alpha         beta         nuclear
     -   - - -        -----         -----         ----         -------
     0   0 0 0      0.000000     -5.000000     -5.000000     10.000000

     1   1 0 0     -0.000000     -0.000000     -0.000000      0.000000
     1   0 1 0     -0.000000     -0.000000     -0.000000      0.000000
     1   0 0 1      0.000000      0.000000      0.000000      0.000000

     2   2 0 0     -6.315440     -5.984517     -5.984517      5.653594
     2   1 1 0     -0.000000     -0.000000     -0.000000      0.000000
     2   1 0 1     -0.000000     -0.000000     -0.000000      0.000000
     2   0 2 0     -6.315440     -5.984517     -5.984517      5.653594
     2   0 1 1     -0.000000     -0.000000     -0.000000      0.000000

 Total times  cpu:        4.0s     wall:        4.9s
