 Output coordinates in angstroms (scale by  1.889725989 to convert to a.u.)

  No.       Tag          Charge          X              Y              Z
 ---- ---------------- ---------- -------------- -------------- --------------
    1 F                    9.0000     0.00000000     0.00000000     0.70711500
    2 F                    9.0000     0.00000000     0.00000000    -0.70711500

         Total DFT energy =     -199.526280383870

                       DFT Final Molecular Orbital Analysis
                       ------------------------------------

 Vector    1  Occ=2.000000D+00  E=-2.455442D+01  Symmetry=a1g

 Vector    2  Occ=2.000000D+00  E=-2.455442D+01  Symmetry=a2u

 Vector    3  Occ=2.000000D+00  E=-1.277701D+00  Symmetry=a1g

 Vector    4  Occ=2.000000D+00  E=-1.050855D+00  Symmetry=a2u

 Vector    5  Occ=2.000000D+00  E=-5.658129D-01  Symmetry=a1g

 Vector    6  Occ=2.000000D+00  E=-4.803615D-01  Symmetry=eu

 Vector    7  Occ=2.000000D+00  E=-4.803615D-01  Symmetry=eu

 Vector    8  Occ=2.000000D+00  E=-3.551297D-01  Symmetry=eg

 Vector    9  Occ=2.000000D+00  E=-3.551297D-01  Symmetry=eg

 Vector   10  Occ=0.000000D+00  E=-2.049867D-01  Symmetry=a2u

 Vector   11  Occ=0.000000D+00  E= 9.219281D-02  Symmetry=a1g

 Vector   12  Occ=0.000000D+00  E= 1.444975D-01  Symmetry=a2u

 Vector   13  Occ=0.000000D+00  E= 1.716428D-01  Symmetry=eu

 Vector   14  Occ=0.000000D+00  E= 1.716428D-01  Symmetry=eu

 Vector   15  Occ=0.000000D+00  E= 2.448323D-01  Symmetry=a1g

 Vector   16  Occ=0.000000D+00  E= 2.499768D-01  Symmetry=eg

 Vector   17  Occ=0.000000D+00  E= 2.499768D-01  Symmetry=eg

 Vector   18  Occ=0.000000D+00  E= 3.900815D-01  Symmetry=a2u

 Vector   19  Occ=0.000000D+00  E= 8.870363D-01  Symmetry=b1g

     Multipole analysis of the density
     ---------------------------------

     L   x y z        total         alpha         beta         nuclear
     -   - - -        -----         -----         ----         -------
     0   0 0 0     -0.000000     -9.000000     -9.000000     18.000000

     1   1 0 0      0.000000      0.000000      0.000000      0.000000
     1   0 1 0      0.000000      0.000000      0.000000      0.000000
     1   0 0 1      0.000000      0.000000      0.000000      0.000000

     2   2 0 0     -7.296240     -3.648120     -3.648120      0.000000
     2   1 1 0      0.000000      0.000000      0.000000      0.000000
     2   1 0 1      0.000000      0.000000      0.000000      0.000000
     2   0 2 0     -7.296240     -3.648120     -3.648120      0.000000
     2   0 1 1      0.000000      0.000000      0.000000      0.000000

 Total times  cpu:        2.3s     wall:        2.9s
