 Output coordinates in angstroms (scale by  1.889725989 to convert to a.u.)

  No.       Tag          Charge          X              Y              Z
 ---- ---------------- ---------- -------------- -------------- --------------
    1 O                    8.0000     0.01959277    -1.53498043    -0.06604063
    2 H                    1.0000    -0.01653885    -0.57478224     0.04178485
    3 H                    1.0000    -0.23518907    -1.87917305     0.79441927
    4 O                    8.0000    -0.01665569     1.39905500     0.05697394
    5 H                    1.0000    -0.61633501     1.77694689    -0.59418791
    6 H                    1.0000     0.84456633     1.76441188    -0.16948269

         Total DFT energy =     -152.873143151055

                       DFT Final Molecular Orbital Analysis
                       ------------------------------------

 Vector    1  Occ=2.000000D+00  E=-1.895026D+01

 Vector    2  Occ=2.000000D+00  E=-1.889440D+01

 Vector    3  Occ=2.000000D+00  E=-9.836345D-01

 Vector    4  Occ=2.000000D+00  E=-9.278620D-01

 Vector    5  Occ=2.000000D+00  E=-5.147296D-01

 Vector    6  Occ=2.000000D+00  E=-4.643023D-01

 Vector    7  Occ=2.000000D+00  E=-3.806777D-01

 Vector    8  Occ=2.000000D+00  E=-3.237040D-01

 Vector    9  Occ=2.000000D+00  E=-2.958388D-01

 Vector   10  Occ=2.000000D+00  E=-2.452935D-01

 Vector   11  Occ=0.000000D+00  E=-4.584487D-02

 Vector   12  Occ=0.000000D+00  E=-2.999194D-03

 Vector   13  Occ=0.000000D+00  E= 7.927620D-03

 Vector   14  Occ=0.000000D+00  E= 5.001891D-02

 Vector   15  Occ=0.000000D+00  E= 1.076151D-01

 Vector   16  Occ=0.000000D+00  E= 1.126074D-01

 Vector   17  Occ=0.000000D+00  E= 1.158208D-01

 Vector   18  Occ=0.000000D+00  E= 1.365853D-01

 Vector   19  Occ=0.000000D+00  E= 1.530544D-01

 Vector   20  Occ=0.000000D+00  E= 1.687165D-01

 Vector   21  Occ=0.000000D+00  E= 1.862829D-01

 Vector   22  Occ=0.000000D+00  E= 1.942673D-01

 Vector   23  Occ=0.000000D+00  E= 1.969368D-01

 Vector   24  Occ=0.000000D+00  E= 2.199359D-01

 Vector   25  Occ=0.000000D+00  E= 2.567709D-01

 Vector   26  Occ=0.000000D+00  E= 2.837237D-01

 Vector   27  Occ=0.000000D+00  E= 3.046859D-01

 Vector   28  Occ=0.000000D+00  E= 3.089988D-01

 Vector   29  Occ=0.000000D+00  E= 3.830077D-01

 Vector   30  Occ=0.000000D+00  E= 4.042658D-01

 Vector   31  Occ=0.000000D+00  E= 4.143116D-01

 Vector   32  Occ=0.000000D+00  E= 4.321219D-01

 Vector   33  Occ=0.000000D+00  E= 4.767686D-01

 Vector   34  Occ=0.000000D+00  E= 4.923116D-01

 Vector   35  Occ=0.000000D+00  E= 4.941717D-01

 Vector   36  Occ=0.000000D+00  E= 5.515208D-01

     Multipole analysis of the density
     ---------------------------------

     L   x y z        total         alpha         beta         nuclear
     -   - - -        -----         -----         ----         -------
     0   0 0 0     -0.000000    -10.000000    -10.000000     20.000000

     1   1 0 0     -0.014140     -0.007070     -0.007070      0.000000
     1   0 1 0      1.074409      0.537205      0.537205     -0.000000
     1   0 0 1      0.042814      0.021407      0.021407      0.000000

     2   2 0 0     -9.172897     -6.647022     -6.647022      4.121147
     2   1 1 0      1.261626     -0.118078     -0.118078      1.497781
     2   1 0 1      0.086803      0.011964      0.011964      0.062875
     2   0 2 0     -8.785808    -84.099977    -84.099977    159.414146
     2   0 1 1     -4.315250      0.383366      0.383366     -5.081982

 Total times  cpu:       58.9s     wall:       64.3s
