 Output coordinates in angstroms (scale by  1.889725989 to convert to a.u.)

  No.       Tag          Charge          X              Y              Z
 ---- ---------------- ---------- -------------- -------------- --------------
    1 O                    8.0000     0.00000000     0.00000000     0.11926200
    2 H                    1.0000    -0.76324000     0.00000000    -0.47704800
    3 H                    1.0000     0.76324000     0.00000000    -0.47704800

         Total DFT energy =      -76.432873137975

                       DFT Final Molecular Orbital Analysis
                       ------------------------------------

 Vector    1  Occ=2.000000D+00  E=-1.892567D+01  Symmetry=a1

 Vector    2  Occ=2.000000D+00  E=-9.548308D-01  Symmetry=a1

 Vector    3  Occ=2.000000D+00  E=-4.874335D-01  Symmetry=b1

 Vector    4  Occ=2.000000D+00  E=-3.506054D-01  Symmetry=a1

 Vector    5  Occ=2.000000D+00  E=-2.705842D-01  Symmetry=b2

 Vector    6  Occ=0.000000D+00  E=-3.436748D-02  Symmetry=a1

 Vector    7  Occ=0.000000D+00  E= 1.554814D-02  Symmetry=b1

 Vector    8  Occ=0.000000D+00  E= 1.196288D-01  Symmetry=a1

 Vector    9  Occ=0.000000D+00  E= 1.332034D-01  Symmetry=b1

 Vector   10  Occ=0.000000D+00  E= 1.397290D-01  Symmetry=a1

 Vector   11  Occ=0.000000D+00  E= 1.410887D-01  Symmetry=b2

 Vector   12  Occ=0.000000D+00  E= 1.919815D-01  Symmetry=a1

 Vector   13  Occ=0.000000D+00  E= 2.045618D-01  Symmetry=b1

 Vector   14  Occ=0.000000D+00  E= 3.159471D-01  Symmetry=a1

 Vector   15  Occ=0.000000D+00  E= 3.452010D-01  Symmetry=a2

 Vector   16  Occ=0.000000D+00  E= 3.826976D-01  Symmetry=b2

 Vector   17  Occ=0.000000D+00  E= 4.063968D-01  Symmetry=b1

 Vector   18  Occ=0.000000D+00  E= 4.675708D-01  Symmetry=a1

 Vector   19  Occ=0.000000D+00  E= 5.442646D-01  Symmetry=b1

     Multipole analysis of the density
     ---------------------------------

     L   x y z        total         alpha         beta         nuclear
     -   - - -        -----         -----         ----         -------
     0   0 0 0     -0.000000     -5.000000     -5.000000     10.000000

     1   1 0 0      0.000000      0.000000      0.000000      0.000000
     1   0 1 0      0.000000      0.000000      0.000000      0.000000
     1   0 0 1     -0.724639     -0.362320     -0.362320      0.000000

     2   2 0 0     -3.359589     -3.760065     -3.760065      4.160542
     2   1 1 0      0.000000      0.000000      0.000000      0.000000
     2   1 0 1     -0.000000     -0.000000     -0.000000      0.000000
     2   0 2 0     -5.820823     -2.910411     -2.910411      0.000000
     2   0 1 1      0.000000      0.000000      0.000000      0.000000

 Total times  cpu:        3.5s     wall:        4.2s
