 Output coordinates in angstroms (scale by  1.889725989 to convert to a.u.)

  No.       Tag          Charge          X              Y              Z
 ---- ---------------- ---------- -------------- -------------- --------------
    1 S                   16.0000     0.00000000     0.00000000     0.10389333
    2 H                    1.0000    -0.96116000     0.00000000    -0.83114667
    3 H                    1.0000     0.96116000     0.00000000    -0.83114667

         Total DFT energy =     -399.282001645202

                       DFT Final Molecular Orbital Analysis
                       ------------------------------------

 Vector    1  Occ=2.000000D+00  E=-8.840854D+01  Symmetry=a1

 Vector    2  Occ=2.000000D+00  E=-7.763458D+00  Symmetry=a1

 Vector    3  Occ=2.000000D+00  E=-5.724916D+00  Symmetry=b1

 Vector    4  Occ=2.000000D+00  E=-5.721309D+00  Symmetry=a1

 Vector    5  Occ=2.000000D+00  E=-5.713917D+00  Symmetry=b2

 Vector    6  Occ=2.000000D+00  E=-6.971033D-01  Symmetry=a1

 Vector    7  Occ=2.000000D+00  E=-4.154201D-01  Symmetry=b1

 Vector    8  Occ=2.000000D+00  E=-3.430179D-01  Symmetry=a1

 Vector    9  Occ=2.000000D+00  E=-2.372247D-01  Symmetry=b2

 Vector   10  Occ=0.000000D+00  E=-3.116800D-02  Symmetry=a1

 Vector   11  Occ=0.000000D+00  E=-1.817730D-02  Symmetry=b1

 Vector   12  Occ=0.000000D+00  E= 2.193986D-02  Symmetry=b1

 Vector   13  Occ=0.000000D+00  E= 3.247364D-02  Symmetry=a1

 Vector   14  Occ=0.000000D+00  E= 3.945930D-02  Symmetry=b2

 Vector   15  Occ=0.000000D+00  E= 6.873729D-02  Symmetry=a1

 Vector   16  Occ=0.000000D+00  E= 8.366197D-02  Symmetry=b1

 Vector   17  Occ=0.000000D+00  E= 8.962915D-02  Symmetry=a1

 Vector   18  Occ=0.000000D+00  E= 1.524937D-01  Symmetry=a1

 Vector   19  Occ=0.000000D+00  E= 1.811118D-01  Symmetry=a2

 Vector   20  Occ=0.000000D+00  E= 1.875975D-01  Symmetry=b2

 Vector   21  Occ=0.000000D+00  E= 2.555391D-01  Symmetry=b1

 Vector   22  Occ=0.000000D+00  E= 2.679806D-01  Symmetry=a1

 Vector   23  Occ=0.000000D+00  E= 2.816147D-01  Symmetry=a1

 Vector   24  Occ=0.000000D+00  E= 2.984996D-01  Symmetry=b2

 Vector   25  Occ=0.000000D+00  E= 3.306877D-01  Symmetry=b1

 Vector   26  Occ=0.000000D+00  E= 4.034892D-01  Symmetry=a1

 Vector   27  Occ=0.000000D+00  E= 4.399049D-01  Symmetry=b1

 Vector   28  Occ=0.000000D+00  E= 4.508622D-01  Symmetry=a1

 Vector   29  Occ=0.000000D+00  E= 4.640967D-01  Symmetry=a2

 Vector   30  Occ=0.000000D+00  E= 4.990868D-01  Symmetry=b2

 Vector   31  Occ=0.000000D+00  E= 5.341725D-01  Symmetry=a1

     Multipole analysis of the density
     ---------------------------------

     L   x y z        total         alpha         beta         nuclear
     -   - - -        -----         -----         ----         -------
     0   0 0 0     -0.000000     -9.000000     -9.000000     18.000000

     1   1 0 0     -0.000000     -0.000000     -0.000000      0.000000
     1   0 1 0      0.000000      0.000000      0.000000      0.000000
     1   0 0 1     -0.380002     -0.190001     -0.190001      0.000000

     2   2 0 0     -9.251889     -7.924996     -7.924996      6.598102
     2   1 1 0      0.000000      0.000000      0.000000      0.000000
     2   1 0 1      0.000000      0.000000      0.000000      0.000000
     2   0 2 0    -12.434415     -6.217208     -6.217208      0.000000
     2   0 1 1      0.000000      0.000000      0.000000      0.000000

 Total times  cpu:        5.6s     wall:        6.2s
