 Output coordinates in angstroms (scale by  1.889725989 to convert to a.u.)

  No.       Tag          Charge          X              Y              Z
 ---- ---------------- ---------- -------------- -------------- --------------
    1 C                    6.0000    -0.33283611    -2.12119696    -0.05202813
    2 N                    7.0000     0.09517343    -3.19588869     0.01506664
    3 H                    1.0000    -0.71251505    -1.11575428    -0.10719108
    4 S                   16.0000    -0.57900093     1.48606659    -0.05118658
    5 C                    6.0000     1.22053616     1.22836929    -0.00965772
    6 H                    1.0000    -0.76218920     1.53203000     1.27752817
    7 H                    1.0000     1.54432853     1.16792890    -1.04896386
    8 H                    1.0000     1.48020340     0.29835872     0.49510466
    9 H                    1.0000     1.72177290     2.06855807     0.46715598

         Total DFT energy =     -532.052901446260

                       DFT Final Molecular Orbital Analysis
                       ------------------------------------

 Vector    8  Occ=2.000000D+00  E=-5.723203D+00

 Vector    9  Occ=2.000000D+00  E=-8.524283D-01

 Vector   10  Occ=2.000000D+00  E=-7.506648D-01

 Vector   11  Occ=2.000000D+00  E=-6.225480D-01

 Vector   12  Occ=2.000000D+00  E=-5.558287D-01

 Vector   13  Occ=2.000000D+00  E=-4.363809D-01

 Vector   14  Occ=2.000000D+00  E=-4.150701D-01

 Vector   15  Occ=2.000000D+00  E=-3.796926D-01

 Vector   16  Occ=2.000000D+00  E=-3.370280D-01

 Vector   17  Occ=2.000000D+00  E=-3.273092D-01

 Vector   18  Occ=2.000000D+00  E=-3.220463D-01

 Vector   19  Occ=2.000000D+00  E=-3.219303D-01

 Vector   20  Occ=2.000000D+00  E=-2.381089D-01

 Vector   21  Occ=0.000000D+00  E=-4.582167D-02

 Vector   22  Occ=0.000000D+00  E=-3.015217D-02

 Vector   23  Occ=0.000000D+00  E=-2.597210D-02

 Vector   24  Occ=0.000000D+00  E=-1.721823D-02

 Vector   25  Occ=0.000000D+00  E=-3.184028D-03

 Vector   26  Occ=0.000000D+00  E= 2.912955D-03

 Vector   27  Occ=0.000000D+00  E= 8.502567D-03

 Vector   28  Occ=0.000000D+00  E= 2.811964D-02

 Vector   29  Occ=0.000000D+00  E= 3.842824D-02

 Vector   30  Occ=0.000000D+00  E= 4.504565D-02

 Vector   31  Occ=0.000000D+00  E= 4.774527D-02

 Vector   32  Occ=0.000000D+00  E= 5.074110D-02

 Vector   33  Occ=0.000000D+00  E= 5.940610D-02

 Vector   34  Occ=0.000000D+00  E= 6.798695D-02

 Vector   35  Occ=0.000000D+00  E= 8.863666D-02

 Vector   36  Occ=0.000000D+00  E= 9.233186D-02

 Vector   37  Occ=0.000000D+00  E= 9.301499D-02

 Vector   38  Occ=0.000000D+00  E= 9.925036D-02

 Vector   39  Occ=0.000000D+00  E= 1.112135D-01

 Vector   40  Occ=0.000000D+00  E= 1.162586D-01

 Vector   41  Occ=0.000000D+00  E= 1.292676D-01

 Vector   42  Occ=0.000000D+00  E= 1.362570D-01

 Vector   43  Occ=0.000000D+00  E= 1.508745D-01

 Vector   44  Occ=0.000000D+00  E= 1.633639D-01

 Vector   45  Occ=0.000000D+00  E= 1.793586D-01

 Vector   46  Occ=0.000000D+00  E= 1.854852D-01

 Vector   47  Occ=0.000000D+00  E= 1.931549D-01

 Vector   48  Occ=0.000000D+00  E= 1.993095D-01

 Vector   49  Occ=0.000000D+00  E= 2.140764D-01

 Vector   50  Occ=0.000000D+00  E= 2.220479D-01

 Vector   51  Occ=0.000000D+00  E= 2.286769D-01

 Vector   52  Occ=0.000000D+00  E= 2.413596D-01

 Vector   53  Occ=0.000000D+00  E= 2.619572D-01

 Vector   54  Occ=0.000000D+00  E= 2.714605D-01

 Vector   55  Occ=0.000000D+00  E= 2.788062D-01

 Vector   56  Occ=0.000000D+00  E= 3.100294D-01

 Vector   57  Occ=0.000000D+00  E= 3.224420D-01

 Vector   58  Occ=0.000000D+00  E= 3.386206D-01

 Vector   59  Occ=0.000000D+00  E= 3.440004D-01

 Vector   60  Occ=0.000000D+00  E= 3.569233D-01

 Vector   61  Occ=0.000000D+00  E= 3.727090D-01

 Vector   62  Occ=0.000000D+00  E= 3.844254D-01

 Vector   63  Occ=0.000000D+00  E= 4.104123D-01

 Vector   64  Occ=0.000000D+00  E= 4.280732D-01

 Vector   65  Occ=0.000000D+00  E= 4.320702D-01

 Vector   66  Occ=0.000000D+00  E= 4.499077D-01

 Vector   67  Occ=0.000000D+00  E= 4.642873D-01

 Vector   68  Occ=0.000000D+00  E= 4.738878D-01

 Vector   69  Occ=0.000000D+00  E= 4.962338D-01

 Vector   70  Occ=0.000000D+00  E= 5.068115D-01

     Multipole analysis of the density
     ---------------------------------

     L   x y z        total         alpha         beta         nuclear
     -   - - -        -----         -----         ----         -------
     0   0 0 0     -0.000000    -20.000000    -20.000000     40.000000

     1   1 0 0      0.167638      0.083819      0.083819     -0.000000
     1   0 1 0      1.304868      0.652434      0.652434      0.000000
     1   0 0 1      0.218248      0.109124      0.109124      0.000000

     2   2 0 0    -23.147402    -53.818096    -53.818096     84.488790
     2   1 1 0      2.620401     -3.635315     -3.635315      9.891031
     2   1 0 1     -0.760434      0.445929      0.445929     -1.652293
     2   0 2 0    -35.376154   -289.454057   -289.454057    543.531959
     2   0 1 1      1.170698     -1.204860     -1.204860      3.580418

 Total times  cpu:      355.1s     wall:      406.1s
