 Output coordinates in angstroms (scale by  1.889725989 to convert to a.u.)

  No.       Tag          Charge          X              Y              Z
 ---- ---------------- ---------- -------------- -------------- --------------
    1 C                    6.0000     0.00000000     0.00000000    -0.50269143
    2 N                    7.0000     0.00000000     0.00000000     0.65540857
    3 H                    1.0000     0.00000000     0.00000000    -1.57171143

         Total DFT energy =      -93.445320871446

                       DFT Final Molecular Orbital Analysis
                       ------------------------------------

 Vector    1  Occ=2.000000D+00  E=-1.415550D+01  Symmetry=a1

 Vector    2  Occ=2.000000D+00  E=-1.006654D+01  Symmetry=a1

 Vector    3  Occ=2.000000D+00  E=-8.637649D-01  Symmetry=a1

 Vector    4  Occ=2.000000D+00  E=-5.734865D-01  Symmetry=a1

 Vector    5  Occ=2.000000D+00  E=-3.465715D-01  Symmetry=a1

 Vector    6  Occ=2.000000D+00  E=-3.327937D-01  Symmetry=e

 Vector    7  Occ=2.000000D+00  E=-3.327937D-01  Symmetry=e

 Vector    8  Occ=0.000000D+00  E=-3.367583D-02  Symmetry=e

 Vector    9  Occ=0.000000D+00  E=-3.367583D-02  Symmetry=e

 Vector   10  Occ=0.000000D+00  E=-1.916149D-02  Symmetry=a1

 Vector   11  Occ=0.000000D+00  E= 1.208960D-02  Symmetry=a1

 Vector   12  Occ=0.000000D+00  E= 5.203122D-02  Symmetry=e

 Vector   13  Occ=0.000000D+00  E= 5.203122D-02  Symmetry=e

 Vector   14  Occ=0.000000D+00  E= 8.845037D-02  Symmetry=a1

 Vector   15  Occ=0.000000D+00  E= 9.641550D-02  Symmetry=a1

 Vector   16  Occ=0.000000D+00  E= 1.586637D-01  Symmetry=e

 Vector   17  Occ=0.000000D+00  E= 1.586637D-01  Symmetry=e

 Vector   18  Occ=0.000000D+00  E= 1.711675D-01  Symmetry=a1

 Vector   19  Occ=0.000000D+00  E= 2.009089D-01  Symmetry=a1

 Vector   20  Occ=0.000000D+00  E= 3.094149D-01  Symmetry=b2

 Vector   21  Occ=0.000000D+00  E= 3.094150D-01  Symmetry=b1

 Vector   22  Occ=0.000000D+00  E= 3.189564D-01  Symmetry=a1

 Vector   23  Occ=0.000000D+00  E= 3.755702D-01  Symmetry=e

 Vector   24  Occ=0.000000D+00  E= 3.755702D-01  Symmetry=e

 Vector   25  Occ=0.000000D+00  E= 4.406239D-01  Symmetry=a1

 Vector   26  Occ=0.000000D+00  E= 5.017373D-01  Symmetry=e

     Multipole analysis of the density
     ---------------------------------

     L   x y z        total         alpha         beta         nuclear
     -   - - -        -----         -----         ----         -------
     0   0 0 0     -0.000000     -7.000000     -7.000000     14.000000

     1   1 0 0      0.000000      0.000000      0.000000      0.000000
     1   0 1 0      0.000000      0.000000      0.000000      0.000000
     1   0 0 1     -1.165208     -0.582604     -0.582604     -0.000000

     2   2 0 0     -8.786000     -4.393000     -4.393000      0.000000
     2   1 1 0      0.000000      0.000000      0.000000      0.000000
     2   1 0 1      0.000000      0.000000      0.000000      0.000000
     2   0 2 0     -8.786000     -4.393000     -4.393000      0.000000
     2   0 1 1      0.000000      0.000000      0.000000      0.000000

 Total times  cpu:        5.5s     wall:        6.2s
