 Output coordinates in angstroms (scale by  1.889725989 to convert to a.u.)

  No.       Tag          Charge          X              Y              Z
 ---- ---------------- ---------- -------------- -------------- --------------
    1 O                    8.0000    -1.13231314     1.45209686     0.00000000
    2 C                    6.0000    -0.04944419     2.03128684     0.00000000
    3 H                    1.0000     0.00527464     3.13019549     0.00000000
    4 N                    7.0000     1.14976845     1.42894026     0.00000000
    5 H                    1.0000     1.22019123     0.40914488     0.00000000
    6 H                    1.0000     1.98354370     1.99011906     0.00000000
    7 O                    8.0000     1.13231314    -1.45209686     0.00000000
    8 C                    6.0000     0.04944419    -2.03128684     0.00000000
    9 H                    1.0000    -0.00527464    -3.13019549     0.00000000
   10 N                    7.0000    -1.14976845    -1.42894026     0.00000000
   11 H                    1.0000    -1.22019123    -0.40914488     0.00000000
   12 H                    1.0000    -1.98354370    -1.99011906     0.00000000

         Total DFT energy =     -339.875503021500

                       DFT Final Molecular Orbital Analysis
                       ------------------------------------

 Vector    6  Occ=2.000000D+00  E=-1.011088D+01  Symmetry=ag

 Vector    7  Occ=2.000000D+00  E=-9.793249D-01  Symmetry=ag

 Vector    8  Occ=2.000000D+00  E=-9.750925D-01  Symmetry=bu

 Vector    9  Occ=2.000000D+00  E=-8.578017D-01  Symmetry=bu

 Vector   10  Occ=2.000000D+00  E=-8.528074D-01  Symmetry=ag

 Vector   11  Occ=2.000000D+00  E=-5.905846D-01  Symmetry=ag

 Vector   12  Occ=2.000000D+00  E=-5.731517D-01  Symmetry=bu

 Vector   13  Occ=2.000000D+00  E=-5.171942D-01  Symmetry=ag

 Vector   14  Occ=2.000000D+00  E=-5.107721D-01  Symmetry=bu

 Vector   15  Occ=2.000000D+00  E=-4.652386D-01  Symmetry=bu

 Vector   16  Occ=2.000000D+00  E=-4.255011D-01  Symmetry=ag

 Vector   17  Occ=2.000000D+00  E=-3.909108D-01  Symmetry=ag

 Vector   18  Occ=2.000000D+00  E=-3.757520D-01  Symmetry=au

 Vector   19  Occ=2.000000D+00  E=-3.705547D-01  Symmetry=bu

 Vector   20  Occ=2.000000D+00  E=-3.702814D-01  Symmetry=bg

 Vector   21  Occ=2.000000D+00  E=-2.518422D-01  Symmetry=bg

 Vector   22  Occ=2.000000D+00  E=-2.437443D-01  Symmetry=au

 Vector   23  Occ=2.000000D+00  E=-2.431304D-01  Symmetry=ag

 Vector   24  Occ=2.000000D+00  E=-2.257238D-01  Symmetry=bu

 Vector   25  Occ=0.000000D+00  E=-2.779521D-02  Symmetry=au

 Vector   26  Occ=0.000000D+00  E=-2.443060D-02  Symmetry=ag

 Vector   27  Occ=0.000000D+00  E=-2.076636D-02  Symmetry=bu

 Vector   28  Occ=0.000000D+00  E=-1.634868D-02  Symmetry=bg

 Vector   29  Occ=0.000000D+00  E= 5.335277D-03  Symmetry=bu

 Vector   30  Occ=0.000000D+00  E= 9.767189D-03  Symmetry=ag

 Vector   31  Occ=0.000000D+00  E= 2.520000D-02  Symmetry=ag

 Vector   32  Occ=0.000000D+00  E= 3.621051D-02  Symmetry=au

 Vector   33  Occ=0.000000D+00  E= 5.642274D-02  Symmetry=bu

 Vector   34  Occ=0.000000D+00  E= 5.678397D-02  Symmetry=ag

 Vector   35  Occ=0.000000D+00  E= 6.069072D-02  Symmetry=bg

 Vector   36  Occ=0.000000D+00  E= 6.443282D-02  Symmetry=bu

 Vector   37  Occ=0.000000D+00  E= 8.269997D-02  Symmetry=bu

 Vector   38  Occ=0.000000D+00  E= 1.003865D-01  Symmetry=ag

 Vector   39  Occ=0.000000D+00  E= 1.031966D-01  Symmetry=bu

 Vector   40  Occ=0.000000D+00  E= 1.094077D-01  Symmetry=ag

 Vector   41  Occ=0.000000D+00  E= 1.203969D-01  Symmetry=bg

 Vector   42  Occ=0.000000D+00  E= 1.225567D-01  Symmetry=ag

 Vector   43  Occ=0.000000D+00  E= 1.243310D-01  Symmetry=bu

 Vector   44  Occ=0.000000D+00  E= 1.513284D-01  Symmetry=au

 Vector   45  Occ=0.000000D+00  E= 1.514568D-01  Symmetry=ag

 Vector   46  Occ=0.000000D+00  E= 1.721286D-01  Symmetry=bu

 Vector   47  Occ=0.000000D+00  E= 1.732334D-01  Symmetry=ag

 Vector   48  Occ=0.000000D+00  E= 1.903918D-01  Symmetry=bu

 Vector   49  Occ=0.000000D+00  E= 1.905166D-01  Symmetry=ag

 Vector   50  Occ=0.000000D+00  E= 1.980847D-01  Symmetry=au

 Vector   51  Occ=0.000000D+00  E= 2.018337D-01  Symmetry=bu

 Vector   52  Occ=0.000000D+00  E= 2.210436D-01  Symmetry=ag

 Vector   53  Occ=0.000000D+00  E= 2.262905D-01  Symmetry=bu

 Vector   54  Occ=0.000000D+00  E= 2.280902D-01  Symmetry=ag

 Vector   55  Occ=0.000000D+00  E= 2.554470D-01  Symmetry=bg

 Vector   56  Occ=0.000000D+00  E= 2.585399D-01  Symmetry=ag

 Vector   57  Occ=0.000000D+00  E= 2.599048D-01  Symmetry=bu

 Vector   58  Occ=0.000000D+00  E= 2.690234D-01  Symmetry=bu

 Vector   59  Occ=0.000000D+00  E= 2.818486D-01  Symmetry=au

 Vector   60  Occ=0.000000D+00  E= 2.878142D-01  Symmetry=bu

 Vector   61  Occ=0.000000D+00  E= 2.891391D-01  Symmetry=ag

 Vector   62  Occ=0.000000D+00  E= 3.107445D-01  Symmetry=bu

 Vector   63  Occ=0.000000D+00  E= 3.238099D-01  Symmetry=bg

 Vector   64  Occ=0.000000D+00  E= 3.309198D-01  Symmetry=ag

 Vector   65  Occ=0.000000D+00  E= 3.646546D-01  Symmetry=ag

 Vector   66  Occ=0.000000D+00  E= 3.774178D-01  Symmetry=bg

 Vector   67  Occ=0.000000D+00  E= 3.826733D-01  Symmetry=ag

 Vector   68  Occ=0.000000D+00  E= 3.861946D-01  Symmetry=bu

 Vector   69  Occ=0.000000D+00  E= 4.004866D-01  Symmetry=au

 Vector   70  Occ=0.000000D+00  E= 4.009246D-01  Symmetry=ag

 Vector   71  Occ=0.000000D+00  E= 4.323061D-01  Symmetry=bu

 Vector   72  Occ=0.000000D+00  E= 4.564979D-01  Symmetry=bg

 Vector   73  Occ=0.000000D+00  E= 4.595794D-01  Symmetry=ag

 Vector   74  Occ=0.000000D+00  E= 4.695238D-01  Symmetry=bu

 Vector   75  Occ=0.000000D+00  E= 4.788126D-01  Symmetry=au

 Vector   76  Occ=0.000000D+00  E= 4.790055D-01  Symmetry=bu

 Vector   77  Occ=0.000000D+00  E= 4.807143D-01  Symmetry=ag

 Vector   78  Occ=0.000000D+00  E= 4.880999D-01  Symmetry=ag

 Vector   79  Occ=0.000000D+00  E= 4.909326D-01  Symmetry=bu

 Vector   80  Occ=0.000000D+00  E= 4.939504D-01  Symmetry=au

 Vector   81  Occ=0.000000D+00  E= 5.048911D-01  Symmetry=bu

     Multipole analysis of the density
     ---------------------------------

     L   x y z        total         alpha         beta         nuclear
     -   - - -        -----         -----         ----         -------
     0   0 0 0     -0.000000    -24.000000    -24.000000     48.000000

     1   1 0 0     -0.000000     -0.000000     -0.000000     -0.000000
     1   0 1 0      0.000000      0.000000      0.000000     -0.000000
     1   0 0 1      0.000000      0.000000      0.000000      0.000000

     2   2 0 0    -26.205075   -102.196468   -102.196468    178.187861
     2   1 1 0      8.528674     -3.618602     -3.618602     15.765878
     2   1 0 1      0.000000      0.000000      0.000000      0.000000
     2   0 2 0    -20.388721   -259.614022   -259.614022    498.839323
     2   0 1 1      0.000000      0.000000      0.000000      0.000000

 Total times  cpu:      334.1s     wall:      376.2s
