 Output coordinates in angstroms (scale by  1.889725989 to convert to a.u.)

  No.       Tag          Charge          X              Y              Z
 ---- ---------------- ---------- -------------- -------------- --------------
    1 C                    6.0000     0.39142226     0.15316870     0.00000000
    2 O                    8.0000    -0.22331306     1.20023421     0.00000000
    3 N                    7.0000    -0.17925820    -1.08004749     0.00000000
    4 H                    1.0000     1.49276754     0.11118667     0.00000000
    5 H                    1.0000    -1.18296874    -1.15968842     0.00000000
    6 H                    1.0000     0.38297951    -1.91205170     0.00000000

         Total DFT energy =     -169.926977675365

                       DFT Final Molecular Orbital Analysis
                       ------------------------------------

 Vector    2  Occ=2.000000D+00  E=-1.416854D+01  Symmetry=a'

 Vector    3  Occ=2.000000D+00  E=-1.011117D+01  Symmetry=a'

 Vector    4  Occ=2.000000D+00  E=-9.777753D-01  Symmetry=a'

 Vector    5  Occ=2.000000D+00  E=-8.633130D-01  Symmetry=a'

 Vector    6  Occ=2.000000D+00  E=-5.899588D-01  Symmetry=a'

 Vector    7  Occ=2.000000D+00  E=-5.231040D-01  Symmetry=a'

 Vector    8  Occ=2.000000D+00  E=-4.483712D-01  Symmetry=a'

 Vector    9  Occ=2.000000D+00  E=-3.770313D-01  Symmetry=a'

 Vector   10  Occ=2.000000D+00  E=-3.743041D-01  Symmetry=a"

 Vector   11  Occ=2.000000D+00  E=-2.522950D-01  Symmetry=a"

 Vector   12  Occ=2.000000D+00  E=-2.273404D-01  Symmetry=a'

 Vector   13  Occ=0.000000D+00  E=-3.245658D-02  Symmetry=a'

 Vector   14  Occ=0.000000D+00  E=-2.220134D-02  Symmetry=a"

 Vector   15  Occ=0.000000D+00  E=-7.967338D-03  Symmetry=a'

 Vector   16  Occ=0.000000D+00  E= 1.380037D-02  Symmetry=a'

 Vector   17  Occ=0.000000D+00  E= 4.344813D-02  Symmetry=a"

 Vector   18  Occ=0.000000D+00  E= 5.106962D-02  Symmetry=a'

 Vector   19  Occ=0.000000D+00  E= 6.163898D-02  Symmetry=a'

 Vector   20  Occ=0.000000D+00  E= 8.786190D-02  Symmetry=a'

 Vector   21  Occ=0.000000D+00  E= 1.050542D-01  Symmetry=a'

 Vector   22  Occ=0.000000D+00  E= 1.129939D-01  Symmetry=a'

 Vector   23  Occ=0.000000D+00  E= 1.222830D-01  Symmetry=a"

 Vector   24  Occ=0.000000D+00  E= 1.387796D-01  Symmetry=a'

 Vector   25  Occ=0.000000D+00  E= 1.660593D-01  Symmetry=a'

 Vector   26  Occ=0.000000D+00  E= 1.726105D-01  Symmetry=a'

 Vector   27  Occ=0.000000D+00  E= 2.069523D-01  Symmetry=a'

 Vector   28  Occ=0.000000D+00  E= 2.150205D-01  Symmetry=a"

 Vector   29  Occ=0.000000D+00  E= 2.391112D-01  Symmetry=a'

 Vector   30  Occ=0.000000D+00  E= 2.700593D-01  Symmetry=a'

 Vector   31  Occ=0.000000D+00  E= 2.802395D-01  Symmetry=a"

 Vector   32  Occ=0.000000D+00  E= 2.846391D-01  Symmetry=a'

 Vector   33  Occ=0.000000D+00  E= 3.102413D-01  Symmetry=a'

 Vector   34  Occ=0.000000D+00  E= 3.645518D-01  Symmetry=a'

 Vector   35  Occ=0.000000D+00  E= 3.721825D-01  Symmetry=a"

 Vector   36  Occ=0.000000D+00  E= 3.853487D-01  Symmetry=a'

 Vector   37  Occ=0.000000D+00  E= 3.948219D-01  Symmetry=a'

 Vector   38  Occ=0.000000D+00  E= 4.375845D-01  Symmetry=a'

 Vector   39  Occ=0.000000D+00  E= 4.568056D-01  Symmetry=a"

 Vector   40  Occ=0.000000D+00  E= 4.642499D-01  Symmetry=a'

 Vector   41  Occ=0.000000D+00  E= 4.791457D-01  Symmetry=a"

 Vector   42  Occ=0.000000D+00  E= 4.860512D-01  Symmetry=a'

 Vector   43  Occ=0.000000D+00  E= 5.461572D-01  Symmetry=a'

     Multipole analysis of the density
     ---------------------------------

     L   x y z        total         alpha         beta         nuclear
     -   - - -        -----         -----         ----         -------
     0   0 0 0     -0.000000    -12.000000    -12.000000     24.000000

     1   1 0 0      0.289946      0.144973      0.144973     -0.000000
     1   0 1 0     -1.492617     -0.746309     -0.746309      0.000000
     1   0 0 1      0.000000      0.000000      0.000000      0.000000

     2   2 0 0    -11.657872    -15.323674    -15.323674     18.989477
     2   1 1 0      0.926416     -0.208731     -0.208731      1.343877
     2   1 0 1      0.000000      0.000000      0.000000      0.000000
     2   0 2 0    -13.546647    -51.133014    -51.133014     88.719381
     2   0 1 1      0.000000      0.000000      0.000000      0.000000

 Total times  cpu:       68.3s     wall:       75.2s
