 Output coordinates in angstroms (scale by  1.889725989 to convert to a.u.)

  No.       Tag          Charge          X              Y              Z
 ---- ---------------- ---------- -------------- -------------- --------------
    1 C                    6.0000     0.40572897     0.12054281     0.00000000
    2 O                    8.0000    -0.22462860     1.14284372     0.00000000
    3 O                    8.0000    -0.13026429    -1.11479582     0.00000000
    4 H                    1.0000     1.49832554     0.05509628     0.00000000
    5 H                    1.0000    -1.09355627    -1.00273637     0.00000000

         Total DFT energy =     -189.795889187309

                       DFT Final Molecular Orbital Analysis
                       ------------------------------------

 Vector    2  Occ=2.000000D+00  E=-1.892530D+01  Symmetry=a'

 Vector    3  Occ=2.000000D+00  E=-1.014811D+01  Symmetry=a'

 Vector    4  Occ=2.000000D+00  E=-1.059263D+00  Symmetry=a'

 Vector    5  Occ=2.000000D+00  E=-9.748015D-01  Symmetry=a'

 Vector    6  Occ=2.000000D+00  E=-6.275812D-01  Symmetry=a'

 Vector    7  Occ=2.000000D+00  E=-4.852943D-01  Symmetry=a'

 Vector    8  Occ=2.000000D+00  E=-4.532105D-01  Symmetry=a'

 Vector    9  Occ=2.000000D+00  E=-4.171191D-01  Symmetry=a"

 Vector   10  Occ=2.000000D+00  E=-3.742464D-01  Symmetry=a'

 Vector   11  Occ=2.000000D+00  E=-3.048166D-01  Symmetry=a"

 Vector   12  Occ=2.000000D+00  E=-2.603682D-01  Symmetry=a'

 Vector   13  Occ=0.000000D+00  E=-4.863292D-02  Symmetry=a"

 Vector   14  Occ=0.000000D+00  E=-2.426583D-02  Symmetry=a'

 Vector   15  Occ=0.000000D+00  E=-6.232137D-03  Symmetry=a'

 Vector   16  Occ=0.000000D+00  E= 3.331999D-02  Symmetry=a'

 Vector   17  Occ=0.000000D+00  E= 4.081894D-02  Symmetry=a"

 Vector   18  Occ=0.000000D+00  E= 5.960929D-02  Symmetry=a'

 Vector   19  Occ=0.000000D+00  E= 8.148810D-02  Symmetry=a'

 Vector   20  Occ=0.000000D+00  E= 1.113389D-01  Symmetry=a'

 Vector   21  Occ=0.000000D+00  E= 1.260984D-01  Symmetry=a'

 Vector   22  Occ=0.000000D+00  E= 1.541568D-01  Symmetry=a'

 Vector   23  Occ=0.000000D+00  E= 1.694511D-01  Symmetry=a"

 Vector   24  Occ=0.000000D+00  E= 1.974742D-01  Symmetry=a'

 Vector   25  Occ=0.000000D+00  E= 2.096854D-01  Symmetry=a"

 Vector   26  Occ=0.000000D+00  E= 2.159934D-01  Symmetry=a'

 Vector   27  Occ=0.000000D+00  E= 2.262599D-01  Symmetry=a'

 Vector   28  Occ=0.000000D+00  E= 2.476545D-01  Symmetry=a'

 Vector   29  Occ=0.000000D+00  E= 2.610894D-01  Symmetry=a'

 Vector   30  Occ=0.000000D+00  E= 2.840893D-01  Symmetry=a'

 Vector   31  Occ=0.000000D+00  E= 3.089340D-01  Symmetry=a"

 Vector   32  Occ=0.000000D+00  E= 3.559611D-01  Symmetry=a'

 Vector   33  Occ=0.000000D+00  E= 3.861431D-01  Symmetry=a'

 Vector   34  Occ=0.000000D+00  E= 3.887085D-01  Symmetry=a"

 Vector   35  Occ=0.000000D+00  E= 4.178035D-01  Symmetry=a'

 Vector   36  Occ=0.000000D+00  E= 4.345702D-01  Symmetry=a'

 Vector   37  Occ=0.000000D+00  E= 4.624053D-01  Symmetry=a"

 Vector   38  Occ=0.000000D+00  E= 5.183418D-01  Symmetry=a'

     Multipole analysis of the density
     ---------------------------------

     L   x y z        total         alpha         beta         nuclear
     -   - - -        -----         -----         ----         -------
     0   0 0 0     -0.000000    -12.000000    -12.000000     24.000000

     1   1 0 0      0.058074      0.029037      0.029037      0.000000
     1   0 1 0     -0.585887     -0.292944     -0.292944      0.000000
     1   0 0 1      0.000000      0.000000      0.000000      0.000000

     2   2 0 0    -10.315925    -14.028406    -14.028406     17.740887
     2   1 1 0      1.841767     -0.115740     -0.115740      2.073248
     2   1 0 1      0.000000      0.000000      0.000000      0.000000
     2   0 2 0    -15.930771    -46.330385    -46.330385     76.729999
     2   0 1 1      0.000000      0.000000      0.000000      0.000000

 Total times  cpu:       54.7s     wall:       60.3s
