 Output coordinates in angstroms (scale by  1.889725989 to convert to a.u.)

  No.       Tag          Charge          X              Y              Z
 ---- ---------------- ---------- -------------- -------------- --------------
    1 C                    6.0000    -0.17291715     1.91003112     0.00000000
    2 H                    1.0000    -0.25007015     3.00126976     0.00000000
    3 O                    8.0000    -1.15507227     1.18960921     0.00000000
    4 O                    8.0000     1.08064655     1.51083538     0.00000000
    5 H                    1.0000     1.11367946     0.51989930     0.00000000
    6 O                    8.0000     1.15507227    -1.18960921     0.00000000
    7 C                    6.0000     0.17291715    -1.91003112     0.00000000
    8 O                    8.0000    -1.08064655    -1.51083538     0.00000000
    9 H                    1.0000    -1.11367946    -0.51989930     0.00000000
   10 H                    1.0000     0.25007015    -3.00126976     0.00000000

         Total DFT energy =     -379.616735395587

                       DFT Final Molecular Orbital Analysis
                       ------------------------------------

 Vector    6  Occ=2.000000D+00  E=-1.015709D+01  Symmetry=ag

 Vector    7  Occ=2.000000D+00  E=-1.066606D+00  Symmetry=ag

 Vector    8  Occ=2.000000D+00  E=-1.056750D+00  Symmetry=bu

 Vector    9  Occ=2.000000D+00  E=-9.841775D-01  Symmetry=bu

 Vector   10  Occ=2.000000D+00  E=-9.734983D-01  Symmetry=ag

 Vector   11  Occ=2.000000D+00  E=-6.405649D-01  Symmetry=ag

 Vector   12  Occ=2.000000D+00  E=-6.164268D-01  Symmetry=bu

 Vector   13  Occ=2.000000D+00  E=-5.140258D-01  Symmetry=bu

 Vector   14  Occ=2.000000D+00  E=-4.855720D-01  Symmetry=ag

 Vector   15  Occ=2.000000D+00  E=-4.680420D-01  Symmetry=bu

 Vector   16  Occ=2.000000D+00  E=-4.506205D-01  Symmetry=ag

 Vector   17  Occ=2.000000D+00  E=-4.271706D-01  Symmetry=au

 Vector   18  Occ=2.000000D+00  E=-4.197657D-01  Symmetry=bg

 Vector   19  Occ=2.000000D+00  E=-3.927062D-01  Symmetry=ag

 Vector   20  Occ=2.000000D+00  E=-3.525357D-01  Symmetry=bu

 Vector   21  Occ=2.000000D+00  E=-3.125839D-01  Symmetry=bg

 Vector   22  Occ=2.000000D+00  E=-3.032372D-01  Symmetry=au

 Vector   23  Occ=2.000000D+00  E=-2.801086D-01  Symmetry=ag

 Vector   24  Occ=2.000000D+00  E=-2.673677D-01  Symmetry=bu

 Vector   25  Occ=0.000000D+00  E=-6.057424D-02  Symmetry=au

 Vector   26  Occ=0.000000D+00  E=-5.095541D-02  Symmetry=bg

 Vector   27  Occ=0.000000D+00  E=-1.496311D-02  Symmetry=ag

 Vector   28  Occ=0.000000D+00  E=-8.470237D-03  Symmetry=bu

 Vector   29  Occ=0.000000D+00  E= 8.626805D-03  Symmetry=ag

 Vector   30  Occ=0.000000D+00  E= 1.763676D-02  Symmetry=bu

 Vector   31  Occ=0.000000D+00  E= 2.784630D-02  Symmetry=au

 Vector   32  Occ=0.000000D+00  E= 4.775267D-02  Symmetry=ag

 Vector   33  Occ=0.000000D+00  E= 5.822819D-02  Symmetry=bg

 Vector   34  Occ=0.000000D+00  E= 6.439611D-02  Symmetry=ag

 Vector   35  Occ=0.000000D+00  E= 6.548042D-02  Symmetry=bu

 Vector   36  Occ=0.000000D+00  E= 7.840846D-02  Symmetry=bu

 Vector   37  Occ=0.000000D+00  E= 1.028809D-01  Symmetry=bu

 Vector   38  Occ=0.000000D+00  E= 1.057794D-01  Symmetry=ag

 Vector   39  Occ=0.000000D+00  E= 1.473946D-01  Symmetry=bg

 Vector   40  Occ=0.000000D+00  E= 1.522188D-01  Symmetry=bu

 Vector   41  Occ=0.000000D+00  E= 1.535466D-01  Symmetry=ag

 Vector   42  Occ=0.000000D+00  E= 1.631882D-01  Symmetry=ag

 Vector   43  Occ=0.000000D+00  E= 1.775807D-01  Symmetry=bu

 Vector   44  Occ=0.000000D+00  E= 1.788073D-01  Symmetry=au

 Vector   45  Occ=0.000000D+00  E= 1.884622D-01  Symmetry=ag

 Vector   46  Occ=0.000000D+00  E= 2.121555D-01  Symmetry=au

 Vector   47  Occ=0.000000D+00  E= 2.156007D-01  Symmetry=bu

 Vector   48  Occ=0.000000D+00  E= 2.164129D-01  Symmetry=ag

 Vector   49  Occ=0.000000D+00  E= 2.188226D-01  Symmetry=bu

 Vector   50  Occ=0.000000D+00  E= 2.373113D-01  Symmetry=bu

 Vector   51  Occ=0.000000D+00  E= 2.465099D-01  Symmetry=ag

 Vector   52  Occ=0.000000D+00  E= 2.465882D-01  Symmetry=bu

 Vector   53  Occ=0.000000D+00  E= 2.510489D-01  Symmetry=ag

 Vector   54  Occ=0.000000D+00  E= 2.567301D-01  Symmetry=ag

 Vector   55  Occ=0.000000D+00  E= 2.659613D-01  Symmetry=bg

 Vector   56  Occ=0.000000D+00  E= 2.877220D-01  Symmetry=au

 Vector   57  Occ=0.000000D+00  E= 2.922475D-01  Symmetry=bu

 Vector   58  Occ=0.000000D+00  E= 3.060870D-01  Symmetry=ag

 Vector   59  Occ=0.000000D+00  E= 3.061993D-01  Symmetry=bu

 Vector   60  Occ=0.000000D+00  E= 3.428994D-01  Symmetry=bg

 Vector   61  Occ=0.000000D+00  E= 3.461553D-01  Symmetry=ag

 Vector   62  Occ=0.000000D+00  E= 3.730811D-01  Symmetry=ag

 Vector   63  Occ=0.000000D+00  E= 3.774901D-01  Symmetry=bu

 Vector   64  Occ=0.000000D+00  E= 3.923151D-01  Symmetry=bg

 Vector   65  Occ=0.000000D+00  E= 3.975272D-01  Symmetry=au

 Vector   66  Occ=0.000000D+00  E= 4.016283D-01  Symmetry=ag

 Vector   67  Occ=0.000000D+00  E= 4.032271D-01  Symmetry=bu

 Vector   68  Occ=0.000000D+00  E= 4.537572D-01  Symmetry=ag

 Vector   69  Occ=0.000000D+00  E= 4.572233D-01  Symmetry=bu

 Vector   70  Occ=0.000000D+00  E= 4.745102D-01  Symmetry=ag

 Vector   71  Occ=0.000000D+00  E= 5.055074D-01  Symmetry=bu

     Multipole analysis of the density
     ---------------------------------

     L   x y z        total         alpha         beta         nuclear
     -   - - -        -----         -----         ----         -------
     0   0 0 0     -0.000000    -24.000000    -24.000000     48.000000

     1   1 0 0      0.000000      0.000000      0.000000      0.000000
     1   0 1 0     -0.000000     -0.000000     -0.000000      0.000000
     1   0 0 1      0.000000      0.000000      0.000000      0.000000

     2   2 0 0    -30.898400    -92.220406    -92.220406    153.542412
     2   1 1 0     -0.658441     -0.027701     -0.027701     -0.603040
     2   1 0 1      0.000000      0.000000      0.000000      0.000000
     2   0 2 0    -20.177534   -227.029416   -227.029416    433.881297
     2   0 1 1      0.000000      0.000000      0.000000      0.000000

 Total times  cpu:      226.0s     wall:      255.5s
