 Output coordinates in angstroms (scale by  1.889725989 to convert to a.u.)

  No.       Tag          Charge          X              Y              Z
 ---- ---------------- ---------- -------------- -------------- --------------
    1 F                    9.0000    -0.06439209    -1.32524866     0.00000000
    2 H                    1.0000     0.76719931    -1.72580394     0.00000000
    3 F                    9.0000    -0.00916764     1.45729794     0.00000000
    4 H                    1.0000    -0.10516170     0.53736046     0.00000000

         Total DFT energy =     -200.897884485795

                       DFT Final Molecular Orbital Analysis
                       ------------------------------------

 Vector    1  Occ=2.000000D+00  E=-2.448649D+01  Symmetry=a'

 Vector    2  Occ=2.000000D+00  E=-2.441823D+01  Symmetry=a'

 Vector    3  Occ=2.000000D+00  E=-1.179710D+00  Symmetry=a'

 Vector    4  Occ=2.000000D+00  E=-1.111686D+00  Symmetry=a'

 Vector    5  Occ=2.000000D+00  E=-5.480636D-01  Symmetry=a'

 Vector    6  Occ=2.000000D+00  E=-4.797490D-01  Symmetry=a'

 Vector    7  Occ=2.000000D+00  E=-4.023091D-01  Symmetry=a'

 Vector    8  Occ=2.000000D+00  E=-4.013902D-01  Symmetry=a"

 Vector    9  Occ=2.000000D+00  E=-3.376922D-01  Symmetry=a'

 Vector   10  Occ=2.000000D+00  E=-3.373663D-01  Symmetry=a"

 Vector   11  Occ=0.000000D+00  E=-5.518701D-02  Symmetry=a'

 Vector   12  Occ=0.000000D+00  E= 1.493281D-02  Symmetry=a'

 Vector   13  Occ=0.000000D+00  E= 7.964099D-02  Symmetry=a'

 Vector   14  Occ=0.000000D+00  E= 1.349399D-01  Symmetry=a'

 Vector   15  Occ=0.000000D+00  E= 1.458229D-01  Symmetry=a"

 Vector   16  Occ=0.000000D+00  E= 1.524942D-01  Symmetry=a'

 Vector   17  Occ=0.000000D+00  E= 1.954518D-01  Symmetry=a'

 Vector   18  Occ=0.000000D+00  E= 2.085066D-01  Symmetry=a'

 Vector   19  Occ=0.000000D+00  E= 2.288306D-01  Symmetry=a"

 Vector   20  Occ=0.000000D+00  E= 2.757351D-01  Symmetry=a'

 Vector   21  Occ=0.000000D+00  E= 2.971361D-01  Symmetry=a'

 Vector   22  Occ=0.000000D+00  E= 3.426431D-01  Symmetry=a'

 Vector   23  Occ=0.000000D+00  E= 3.431079D-01  Symmetry=a"

 Vector   24  Occ=0.000000D+00  E= 3.711862D-01  Symmetry=a'

 Vector   25  Occ=0.000000D+00  E= 4.051368D-01  Symmetry=a'

 Vector   26  Occ=0.000000D+00  E= 4.354896D-01  Symmetry=a"

 Vector   27  Occ=0.000000D+00  E= 4.892596D-01  Symmetry=a'

 Vector   28  Occ=0.000000D+00  E= 5.222968D-01  Symmetry=a'

     Multipole analysis of the density
     ---------------------------------

     L   x y z        total         alpha         beta         nuclear
     -   - - -        -----         -----         ----         -------
     0   0 0 0     -0.000000    -10.000000    -10.000000     20.000000

     1   1 0 0      0.569941      0.284970      0.284970     -0.000000
     1   0 1 0     -1.199287     -0.599644     -0.599644      0.000000
     1   0 0 1      0.000000      0.000000      0.000000      0.000000

     2   2 0 0     -7.398611     -4.837988     -4.837988      2.277365
     2   1 1 0     -2.339354      0.138699      0.138699     -2.616752
     2   1 0 1      0.000000      0.000000      0.000000      0.000000
     2   0 2 0     -8.767063    -72.567947    -72.567947    136.368830
     2   0 1 1      0.000000      0.000000      0.000000      0.000000

 Total times  cpu:       13.7s     wall:       15.3s
