 Output coordinates in angstroms (scale by  1.889725989 to convert to a.u.)

  No.       Tag          Charge          X              Y              Z
 ---- ---------------- ---------- -------------- -------------- --------------
    1 F                    9.0000     0.00000000     0.00000000     0.09338900
    2 H                    1.0000     0.00000000     0.00000000    -0.84050100

         Total DFT energy =     -100.445404858955

                       DFT Final Molecular Orbital Analysis
                       ------------------------------------

 Vector    1  Occ=2.000000D+00  E=-2.444390D+01  Symmetry=a1

 Vector    2  Occ=2.000000D+00  E=-1.132577D+00  Symmetry=a1

 Vector    3  Occ=2.000000D+00  E=-4.993864D-01  Symmetry=a1

 Vector    4  Occ=2.000000D+00  E=-3.584355D-01  Symmetry=e

 Vector    5  Occ=2.000000D+00  E=-3.584355D-01  Symmetry=e

 Vector    6  Occ=0.000000D+00  E=-3.570380D-02  Symmetry=a1

 Vector    7  Occ=0.000000D+00  E= 9.293467D-02  Symmetry=a1

 Vector    8  Occ=0.000000D+00  E= 1.820828D-01  Symmetry=a1

 Vector    9  Occ=0.000000D+00  E= 1.865078D-01  Symmetry=e

 Vector   10  Occ=0.000000D+00  E= 1.865078D-01  Symmetry=e

 Vector   11  Occ=0.000000D+00  E= 2.707185D-01  Symmetry=a1

 Vector   12  Occ=0.000000D+00  E= 3.654194D-01  Symmetry=e

 Vector   13  Occ=0.000000D+00  E= 3.654194D-01  Symmetry=e

 Vector   14  Occ=0.000000D+00  E= 3.928812D-01  Symmetry=a1

 Vector   15  Occ=0.000000D+00  E= 6.829364D-01  Symmetry=a1

     Multipole analysis of the density
     ---------------------------------

     L   x y z        total         alpha         beta         nuclear
     -   - - -        -----         -----         ----         -------
     0   0 0 0      0.000000     -5.000000     -5.000000     10.000000

     1   1 0 0      0.000000      0.000000      0.000000      0.000000
     1   0 1 0      0.000000      0.000000      0.000000      0.000000
     1   0 0 1     -0.704681     -0.352341     -0.352341     -0.000000

     2   2 0 0     -4.396361     -2.198180     -2.198180      0.000000
     2   1 1 0      0.000000      0.000000      0.000000      0.000000
     2   1 0 1      0.000000      0.000000      0.000000      0.000000
     2   0 2 0     -4.396361     -2.198180     -2.198180      0.000000
     2   0 1 1      0.000000      0.000000      0.000000      0.000000

 Total times  cpu:        1.3s     wall:        2.0s
