 Output coordinates in angstroms (scale by  1.889725989 to convert to a.u.)

  No.       Tag          Charge          X              Y              Z
 ---- ---------------- ---------- -------------- -------------- --------------
    1 N                    7.0000     0.00008644    -1.57573687    -0.01440320
    2 H                    1.0000     0.81394327    -2.13589743    -0.24842003
    3 H                    1.0000    -0.00293419    -1.47883692     0.99689418
    4 H                    1.0000    -0.81189678    -2.13659096    -0.25323355
    5 N                    7.0000     0.00008332     1.68984999     0.07460997
    6 H                    1.0000    -0.81267979     2.12038370    -0.35531900
    7 H                    1.0000     0.81184021     2.12140530    -0.35620226
    8 H                    1.0000     0.00053896     0.71074447    -0.20516675

         Total DFT energy =     -113.135067729665

                       DFT Final Molecular Orbital Analysis
                       ------------------------------------

 Vector    1  Occ=2.000000D+00  E=-1.412476D+01

 Vector    2  Occ=2.000000D+00  E=-1.409028D+01

 Vector    3  Occ=2.000000D+00  E=-8.123755D-01

 Vector    4  Occ=2.000000D+00  E=-7.780557D-01

 Vector    5  Occ=2.000000D+00  E=-4.340405D-01

 Vector    6  Occ=2.000000D+00  E=-4.334349D-01

 Vector    7  Occ=2.000000D+00  E=-4.025155D-01

 Vector    8  Occ=2.000000D+00  E=-3.993933D-01

 Vector    9  Occ=2.000000D+00  E=-2.469582D-01

 Vector   10  Occ=2.000000D+00  E=-2.125365D-01

 Vector   11  Occ=0.000000D+00  E=-3.396555D-02

 Vector   12  Occ=0.000000D+00  E=-5.181170D-03

 Vector   13  Occ=0.000000D+00  E= 1.054510D-02

 Vector   14  Occ=0.000000D+00  E= 1.832983D-02

 Vector   15  Occ=0.000000D+00  E= 3.309147D-02

 Vector   16  Occ=0.000000D+00  E= 4.835224D-02

 Vector   17  Occ=0.000000D+00  E= 9.685490D-02

 Vector   18  Occ=0.000000D+00  E= 1.022035D-01

 Vector   19  Occ=0.000000D+00  E= 1.044783D-01

 Vector   20  Occ=0.000000D+00  E= 1.156906D-01

 Vector   21  Occ=0.000000D+00  E= 1.386044D-01

 Vector   22  Occ=0.000000D+00  E= 1.422399D-01

 Vector   23  Occ=0.000000D+00  E= 1.478682D-01

 Vector   24  Occ=0.000000D+00  E= 1.685700D-01

 Vector   25  Occ=0.000000D+00  E= 1.711876D-01

 Vector   26  Occ=0.000000D+00  E= 1.747878D-01

 Vector   27  Occ=0.000000D+00  E= 1.923843D-01

 Vector   28  Occ=0.000000D+00  E= 2.085965D-01

 Vector   29  Occ=0.000000D+00  E= 2.126995D-01

 Vector   30  Occ=0.000000D+00  E= 2.680520D-01

 Vector   31  Occ=0.000000D+00  E= 2.705375D-01

 Vector   32  Occ=0.000000D+00  E= 3.154068D-01

 Vector   33  Occ=0.000000D+00  E= 3.355973D-01

 Vector   34  Occ=0.000000D+00  E= 3.472723D-01

 Vector   35  Occ=0.000000D+00  E= 3.603902D-01

 Vector   36  Occ=0.000000D+00  E= 3.881414D-01

 Vector   37  Occ=0.000000D+00  E= 4.178642D-01

 Vector   38  Occ=0.000000D+00  E= 4.197842D-01

 Vector   39  Occ=0.000000D+00  E= 4.578244D-01

 Vector   40  Occ=0.000000D+00  E= 4.871070D-01

 Vector   41  Occ=0.000000D+00  E= 5.133432D-01

     Multipole analysis of the density
     ---------------------------------

     L   x y z        total         alpha         beta         nuclear
     -   - - -        -----         -----         ----         -------
     0   0 0 0     -0.000000    -10.000000    -10.000000     20.000000

     1   1 0 0     -0.000801     -0.000401     -0.000401      0.000000
     1   0 1 0     -0.778006     -0.389003     -0.389003     -0.000000
     1   0 0 1     -0.305579     -0.152790     -0.152790     -0.000000

     2   2 0 0     -9.595843     -9.513908     -9.513908      9.431974
     2   1 1 0     -0.000966     -0.000475     -0.000475     -0.000016
     2   1 0 1     -0.000153     -0.000041     -0.000041     -0.000071
     2   0 2 0     -8.818607   -108.301135   -108.301135    207.783664
     2   0 1 1     -2.170735      0.728811      0.728811     -3.628357

 Total times  cpu:      106.6s     wall:      115.9s
