 Output coordinates in angstroms (scale by  1.889725989 to convert to a.u.)

  No.       Tag          Charge          X              Y              Z
 ---- ---------------- ---------- -------------- -------------- --------------
    1 N                    7.0000     0.00000000     0.00000000    -2.14998857
    2 H                    1.0000     0.66443375     0.66443375    -2.53439857
    3 H                    1.0000     0.24319963    -0.90763338    -2.53439857
    4 H                    1.0000    -0.90763338     0.24319963    -2.53439857
    5 F                    9.0000    -0.00000000     0.00000000     0.54577143
    6 F                    9.0000     0.00000000     0.00000000     1.97124143

         Total DFT energy =     -256.098625339343

                       DFT Final Molecular Orbital Analysis
                       ------------------------------------

 Vector    3  Occ=2.000000D+00  E=-1.413880D+01  Symmetry=a1

 Vector    4  Occ=2.000000D+00  E=-1.229689D+00  Symmetry=a1

 Vector    5  Occ=2.000000D+00  E=-1.011233D+00  Symmetry=a1

 Vector    6  Occ=2.000000D+00  E=-8.225677D-01  Symmetry=a1

 Vector    7  Occ=2.000000D+00  E=-5.209839D-01  Symmetry=a1

 Vector    8  Occ=2.000000D+00  E=-4.435369D-01  Symmetry=e

 Vector    9  Occ=2.000000D+00  E=-4.435369D-01  Symmetry=e

 Vector   10  Occ=2.000000D+00  E=-4.374882D-01  Symmetry=e

 Vector   11  Occ=2.000000D+00  E=-4.374882D-01  Symmetry=e

 Vector   12  Occ=2.000000D+00  E=-3.157987D-01  Symmetry=e

 Vector   13  Occ=2.000000D+00  E=-3.157987D-01  Symmetry=e

 Vector   14  Occ=2.000000D+00  E=-2.568339D-01  Symmetry=a1

 Vector   15  Occ=0.000000D+00  E=-1.635406D-01  Symmetry=a1

 Vector   16  Occ=0.000000D+00  E=-3.446506D-02  Symmetry=a1

 Vector   17  Occ=0.000000D+00  E= 1.285085D-02  Symmetry=e

 Vector   18  Occ=0.000000D+00  E= 1.285085D-02  Symmetry=e

 Vector   19  Occ=0.000000D+00  E= 7.321162D-02  Symmetry=a1

 Vector   20  Occ=0.000000D+00  E= 1.060699D-01  Symmetry=e

 Vector   21  Occ=0.000000D+00  E= 1.060699D-01  Symmetry=e

 Vector   22  Occ=0.000000D+00  E= 1.094917D-01  Symmetry=a1

 Vector   23  Occ=0.000000D+00  E= 1.347587D-01  Symmetry=a1

 Vector   24  Occ=0.000000D+00  E= 1.675764D-01  Symmetry=e

 Vector   25  Occ=0.000000D+00  E= 1.675764D-01  Symmetry=e

 Vector   26  Occ=0.000000D+00  E= 1.921792D-01  Symmetry=a1

 Vector   27  Occ=0.000000D+00  E= 2.026919D-01  Symmetry=e

 Vector   28  Occ=0.000000D+00  E= 2.026919D-01  Symmetry=e

 Vector   29  Occ=0.000000D+00  E= 2.511038D-01  Symmetry=e

 Vector   30  Occ=0.000000D+00  E= 2.511038D-01  Symmetry=e

 Vector   31  Occ=0.000000D+00  E= 2.625657D-01  Symmetry=a1

 Vector   32  Occ=0.000000D+00  E= 3.511196D-01  Symmetry=e

 Vector   33  Occ=0.000000D+00  E= 3.511196D-01  Symmetry=e

 Vector   34  Occ=0.000000D+00  E= 3.713288D-01  Symmetry=e

 Vector   35  Occ=0.000000D+00  E= 3.713288D-01  Symmetry=e

 Vector   36  Occ=0.000000D+00  E= 3.978565D-01  Symmetry=a1

 Vector   37  Occ=0.000000D+00  E= 4.294516D-01  Symmetry=a1

 Vector   38  Occ=0.000000D+00  E= 4.735236D-01  Symmetry=a1

 Vector   39  Occ=0.000000D+00  E= 5.097232D-01  Symmetry=a2

     Multipole analysis of the density
     ---------------------------------

     L   x y z        total         alpha         beta         nuclear
     -   - - -        -----         -----         ----         -------
     0   0 0 0     -0.000000    -14.000000    -14.000000     28.000000

     1   1 0 0      0.000000      0.000000      0.000000      0.000000
     1   0 1 0      0.000000      0.000000      0.000000      0.000000
     1   0 0 1     -1.128411     -0.564205     -0.564205     -0.000000

     2   2 0 0    -12.004461     -8.367019     -8.367019      4.729577
     2   1 1 0      0.000000      0.000000      0.000000      0.000000
     2   1 0 1      0.000000      0.000000      0.000000      0.000000
     2   0 2 0    -12.004461     -8.367019     -8.367019      4.729577
     2   0 1 1     -0.000000     -0.000000     -0.000000     -0.000000

 Total times  cpu:       37.8s     wall:       41.0s
