 Output coordinates in angstroms (scale by  1.889725989 to convert to a.u.)

  No.       Tag          Charge          X              Y              Z
 ---- ---------------- ---------- -------------- -------------- --------------
    1 N                    7.0000     0.00475759     1.39574844     0.00003136
    2 H                    1.0000     0.99165901     1.61139736    -0.10623245
    3 H                    1.0000    -0.47732829     1.87210053    -0.75597891
    4 H                    1.0000    -0.29613662     1.83946421     0.86230065
    5 O                    8.0000     0.07629403    -1.57021777     0.00001203
    6 H                    1.0000    -0.04539616    -0.60599175    -0.00063114
    7 H                    1.0000    -0.81645328    -1.92546728     0.00022607

         Total DFT energy =     -133.008269679941

                       DFT Final Molecular Orbital Analysis
                       ------------------------------------

 Vector    1  Occ=2.000000D+00  E=-1.888326D+01

 Vector    2  Occ=2.000000D+00  E=-1.413941D+01

 Vector    3  Occ=2.000000D+00  E=-9.166663D-01

 Vector    4  Occ=2.000000D+00  E=-8.267471D-01

 Vector    5  Occ=2.000000D+00  E=-4.540307D-01

 Vector    6  Occ=2.000000D+00  E=-4.474331D-01

 Vector    7  Occ=2.000000D+00  E=-4.450500D-01

 Vector    8  Occ=2.000000D+00  E=-3.187967D-01

 Vector    9  Occ=2.000000D+00  E=-2.601769D-01

 Vector   10  Occ=2.000000D+00  E=-2.354661D-01

 Vector   11  Occ=0.000000D+00  E=-3.950873D-02

 Vector   12  Occ=0.000000D+00  E= 6.680705D-04

 Vector   13  Occ=0.000000D+00  E= 1.057184D-02

 Vector   14  Occ=0.000000D+00  E= 1.285205D-02

 Vector   15  Occ=0.000000D+00  E= 5.364996D-02

 Vector   16  Occ=0.000000D+00  E= 9.542456D-02

 Vector   17  Occ=0.000000D+00  E= 1.002215D-01

 Vector   18  Occ=0.000000D+00  E= 1.022358D-01

 Vector   19  Occ=0.000000D+00  E= 1.277910D-01

 Vector   20  Occ=0.000000D+00  E= 1.435085D-01

 Vector   21  Occ=0.000000D+00  E= 1.626473D-01

 Vector   22  Occ=0.000000D+00  E= 1.633082D-01

 Vector   23  Occ=0.000000D+00  E= 1.693889D-01

 Vector   24  Occ=0.000000D+00  E= 1.830032D-01

 Vector   25  Occ=0.000000D+00  E= 1.918332D-01

 Vector   26  Occ=0.000000D+00  E= 2.262511D-01

 Vector   27  Occ=0.000000D+00  E= 2.689613D-01

 Vector   28  Occ=0.000000D+00  E= 2.747080D-01

 Vector   29  Occ=0.000000D+00  E= 2.911077D-01

 Vector   30  Occ=0.000000D+00  E= 3.156142D-01

 Vector   31  Occ=0.000000D+00  E= 3.480038D-01

 Vector   32  Occ=0.000000D+00  E= 3.532186D-01

 Vector   33  Occ=0.000000D+00  E= 3.970552D-01

 Vector   34  Occ=0.000000D+00  E= 4.059245D-01

 Vector   35  Occ=0.000000D+00  E= 4.415656D-01

 Vector   36  Occ=0.000000D+00  E= 4.530893D-01

 Vector   37  Occ=0.000000D+00  E= 4.807870D-01

 Vector   38  Occ=0.000000D+00  E= 5.061861D-01

     Multipole analysis of the density
     ---------------------------------

     L   x y z        total         alpha         beta         nuclear
     -   - - -        -----         -----         ----         -------
     0   0 0 0     -0.000000    -10.000000    -10.000000     20.000000

     1   1 0 0     -0.494948     -0.247474     -0.247474      0.000000
     1   0 1 0      1.283794      0.641897      0.641897      0.000000
     1   0 0 1      0.000019      0.000010      0.000010      0.000000

     2   2 0 0     -9.202902     -8.198063     -8.198063      7.193224
     2   1 1 0      2.376953     -0.324366     -0.324366      3.025685
     2   1 0 1     -0.001366     -0.000678     -0.000678     -0.000009
     2   0 2 0     -9.646670    -88.602481    -88.602481    167.558292
     2   0 1 1     -0.000545      0.000044      0.000044     -0.000634

 Total times  cpu:       87.9s     wall:       95.4s
