 Output coordinates in angstroms (scale by  1.889725989 to convert to a.u.)

  No.       Tag          Charge          X              Y              Z
 ---- ---------------- ---------- -------------- -------------- --------------
    1 N                    7.0000     0.00000000     0.00000000     0.11501100
    2 H                    1.0000     0.66450585     0.66450585    -0.26835900
    3 H                    1.0000     0.24322602    -0.90773187    -0.26835900
    4 H                    1.0000    -0.90773187     0.24322602    -0.26835900

         Total DFT energy =      -56.565377346695

                       DFT Final Molecular Orbital Analysis
                       ------------------------------------

 Vector    1  Occ=2.000000D+00  E=-1.411427D+01  Symmetry=a1

 Vector    2  Occ=2.000000D+00  E=-8.018058D-01  Symmetry=a1

 Vector    3  Occ=2.000000D+00  E=-4.237774D-01  Symmetry=e

 Vector    4  Occ=2.000000D+00  E=-4.237774D-01  Symmetry=e

 Vector    5  Occ=2.000000D+00  E=-2.335008D-01  Symmetry=a1

 Vector    6  Occ=0.000000D+00  E=-2.812916D-02  Symmetry=a1

 Vector    7  Occ=0.000000D+00  E= 1.859421D-02  Symmetry=e

 Vector    8  Occ=0.000000D+00  E= 1.859421D-02  Symmetry=e

 Vector    9  Occ=0.000000D+00  E= 8.472635D-02  Symmetry=a1

 Vector   10  Occ=0.000000D+00  E= 1.156955D-01  Symmetry=e

 Vector   11  Occ=0.000000D+00  E= 1.156955D-01  Symmetry=e

 Vector   12  Occ=0.000000D+00  E= 1.219167D-01  Symmetry=a1

 Vector   13  Occ=0.000000D+00  E= 1.779191D-01  Symmetry=e

 Vector   14  Occ=0.000000D+00  E= 1.779191D-01  Symmetry=e

 Vector   15  Occ=0.000000D+00  E= 1.903100D-01  Symmetry=a1

 Vector   16  Occ=0.000000D+00  E= 2.839835D-01  Symmetry=e

 Vector   17  Occ=0.000000D+00  E= 2.839835D-01  Symmetry=e

 Vector   18  Occ=0.000000D+00  E= 3.685434D-01  Symmetry=e

 Vector   19  Occ=0.000000D+00  E= 3.685434D-01  Symmetry=e

 Vector   20  Occ=0.000000D+00  E= 4.120154D-01  Symmetry=a1

 Vector   21  Occ=0.000000D+00  E= 4.871917D-01  Symmetry=a1

 Vector   22  Occ=0.000000D+00  E= 5.201413D-01  Symmetry=a2

     Multipole analysis of the density
     ---------------------------------

     L   x y z        total         alpha         beta         nuclear
     -   - - -        -----         -----         ----         -------
     0   0 0 0      0.000000     -5.000000     -5.000000     10.000000

     1   1 0 0     -0.000000      0.000000      0.000000     -0.000000
     1   0 1 0     -0.000000     -0.000000     -0.000000     -0.000000
     1   0 0 1     -0.580105     -0.290053     -0.290053      0.000000

     2   2 0 0     -4.770966     -4.750785     -4.750785      4.730603
     2   1 1 0     -0.000000     -0.000000     -0.000000     -0.000000
     2   1 0 1     -0.000000     -0.000000     -0.000000      0.000000
     2   0 2 0     -4.770966     -4.750785     -4.750785      4.730603
     2   0 1 1      0.000000      0.000000      0.000000      0.000000

 Total times  cpu:        6.6s     wall:        7.3s
