 Output coordinates in angstroms (scale by  1.889725989 to convert to a.u.)

  No.       Tag          Charge          X              Y              Z
 ---- ---------------- ---------- -------------- -------------- --------------
    1 C                    6.0000     0.00000000     0.00000000     0.00000000

         Total DFT energy =      -37.437491112740

                    DFT Final Alpha Molecular Orbital Analysis
                    ------------------------------------------

 Vector    1  Occ=1.000000D+00  E=-1.070814D+01

 Vector    2  Occ=1.000000D+00  E=-9.811009D-01

 Vector    3  Occ=1.000000D+00  E=-6.784229D-01

 Vector    4  Occ=0.000000D+00  E=-6.063138D-01

 Vector    5  Occ=0.000000D+00  E=-6.063127D-01

 Vector    6  Occ=0.000000D+00  E=-1.885717D-01

 Vector    7  Occ=0.000000D+00  E=-1.352277D-01

 Vector    8  Occ=0.000000D+00  E=-1.291885D-01

 Vector    9  Occ=0.000000D+00  E=-1.291837D-01

 Vector   10  Occ=0.000000D+00  E= 3.656444D-02

 Vector   11  Occ=0.000000D+00  E= 3.656451D-02

 Vector   12  Occ=0.000000D+00  E= 4.013848D-02

 Vector   13  Occ=0.000000D+00  E= 4.157222D-02

 Vector   14  Occ=0.000000D+00  E= 4.157330D-02

 Vector   15  Occ=0.000000D+00  E= 8.366874D-02

 Vector   16  Occ=0.000000D+00  E= 1.990727D-01

 Vector   17  Occ=0.000000D+00  E= 2.125619D-01

 Vector   18  Occ=0.000000D+00  E= 2.125632D-01

 Vector   19  Occ=0.000000D+00  E= 8.047035D-01

 Vector    1  Occ=1.000000D+00  E=-1.068985D+01

 Vector    2  Occ=1.000000D+00  E=-9.182945D-01

 Vector    3  Occ=0.000000D+00  E=-5.899102D-01

 Vector    4  Occ=0.000000D+00  E=-5.899101D-01

 Vector    5  Occ=0.000000D+00  E=-5.147834D-01

 Vector    6  Occ=0.000000D+00  E=-1.743087D-01

 Vector    7  Occ=0.000000D+00  E=-1.229609D-01

 Vector    8  Occ=0.000000D+00  E=-1.229554D-01

 Vector    9  Occ=0.000000D+00  E=-1.087739D-01

 Vector   10  Occ=0.000000D+00  E= 4.893569D-02

 Vector   11  Occ=0.000000D+00  E= 4.893692D-02

 Vector   12  Occ=0.000000D+00  E= 6.734343D-02

 Vector   13  Occ=0.000000D+00  E= 6.734344D-02

 Vector   14  Occ=0.000000D+00  E= 7.048391D-02

 Vector   15  Occ=0.000000D+00  E= 9.843497D-02

 Vector   16  Occ=0.000000D+00  E= 2.266265D-01

 Vector   17  Occ=0.000000D+00  E= 2.266279D-01

 Vector   18  Occ=0.000000D+00  E= 2.575391D-01

 Vector   19  Occ=0.000000D+00  E= 8.408947D-01

 Total times  cpu:        2.1s     wall:        2.6s
