 Output coordinates in angstroms (scale by  1.889725989 to convert to a.u.)

  No.       Tag          Charge          X              Y              Z
 ---- ---------------- ---------- -------------- -------------- --------------
    1 C                    6.0000     0.00000000     0.00000000     0.00000000

         Total DFT energy =      -37.854057618812

                    DFT Final Alpha Molecular Orbital Analysis
                    ------------------------------------------

 Vector    1  Occ=1.000000D+00  E=-1.014933D+01

 Vector    2  Occ=1.000000D+00  E=-5.539936D-01

 Vector    3  Occ=1.000000D+00  E=-2.316771D-01

 Vector    4  Occ=1.000000D+00  E=-2.316771D-01

 Vector    5  Occ=0.000000D+00  E=-1.936042D-01

 Vector    6  Occ=0.000000D+00  E= 1.291822D-02

 Vector    7  Occ=0.000000D+00  E= 5.638619D-02

 Vector    8  Occ=0.000000D+00  E= 5.638620D-02

 Vector    9  Occ=0.000000D+00  E= 5.974614D-02

 Vector   10  Occ=0.000000D+00  E= 3.164412D-01

 Vector   11  Occ=0.000000D+00  E= 3.172010D-01

 Vector   12  Occ=0.000000D+00  E= 3.172010D-01

 Vector   13  Occ=0.000000D+00  E= 3.194618D-01

 Vector   14  Occ=0.000000D+00  E= 3.194618D-01

 Vector   15  Occ=0.000000D+00  E= 3.242380D-01

 Vector   16  Occ=0.000000D+00  E= 5.024286D-01

 Vector    1  Occ=1.000000D+00  E=-1.011880D+01

 Vector    2  Occ=1.000000D+00  E=-4.462219D-01

 Vector    3  Occ=0.000000D+00  E=-1.531049D-01

 Vector    4  Occ=0.000000D+00  E=-9.654940D-02

 Vector    5  Occ=0.000000D+00  E=-9.654940D-02

 Vector    6  Occ=0.000000D+00  E= 4.140833D-02

 Vector    7  Occ=0.000000D+00  E= 7.799038D-02

 Vector    8  Occ=0.000000D+00  E= 9.812151D-02

 Vector    9  Occ=0.000000D+00  E= 9.812152D-02

 Vector   10  Occ=0.000000D+00  E= 3.444437D-01

 Vector   11  Occ=0.000000D+00  E= 3.524466D-01

 Vector   12  Occ=0.000000D+00  E= 3.524466D-01

 Vector   13  Occ=0.000000D+00  E= 3.527396D-01

 Vector   14  Occ=0.000000D+00  E= 3.640222D-01

 Vector   15  Occ=0.000000D+00  E= 3.640222D-01

 Vector   16  Occ=0.000000D+00  E= 5.545783D-01

 Total times  cpu:        2.0s     wall:        2.5s
