 Output coordinates in angstroms (scale by  1.889725989 to convert to a.u.)

  No.       Tag          Charge          X              Y              Z
 ---- ---------------- ---------- -------------- -------------- --------------
    1 Cl                  17.0000     0.00000000     0.00000000     0.00000000

         Total DFT energy =     -459.528797388933

                    DFT Final Alpha Molecular Orbital Analysis
                    ------------------------------------------

 Vector    1  Occ=1.000000D+00  E=-1.015831D+02

 Vector    2  Occ=1.000000D+00  E=-9.779918D+00

 Vector    3  Occ=1.000000D+00  E=-7.546258D+00

 Vector    4  Occ=1.000000D+00  E=-7.546258D+00

 Vector    5  Occ=1.000000D+00  E=-7.520172D+00

 Vector    6  Occ=1.000000D+00  E=-1.231527D+00

 Vector    7  Occ=1.000000D+00  E=-7.746610D-01

 Vector    8  Occ=1.000000D+00  E=-7.746610D-01

 Vector    9  Occ=1.000000D+00  E=-7.121710D-01

 Vector   10  Occ=0.000000D+00  E=-2.096586D-01

 Vector   11  Occ=0.000000D+00  E=-1.475753D-01

 Vector   12  Occ=0.000000D+00  E=-1.475753D-01

 Vector   13  Occ=0.000000D+00  E=-1.385255D-01

 Vector   14  Occ=0.000000D+00  E=-1.385160D-01

 Vector   15  Occ=0.000000D+00  E=-1.306341D-01

 Vector   16  Occ=0.000000D+00  E=-1.171873D-01

 Vector   17  Occ=0.000000D+00  E=-1.171873D-01

 Vector   18  Occ=0.000000D+00  E=-1.050158D-01

 Vector   19  Occ=0.000000D+00  E= 1.224176D-01

 Vector   20  Occ=0.000000D+00  E= 1.355822D-01

 Vector   21  Occ=0.000000D+00  E= 1.355881D-01

 Vector   22  Occ=0.000000D+00  E= 1.515433D-01

 Vector   23  Occ=0.000000D+00  E= 5.973437D-01

 Vector    1  Occ=1.000000D+00  E=-1.015710D+02

 Vector    2  Occ=1.000000D+00  E=-9.768721D+00

 Vector    3  Occ=1.000000D+00  E=-7.523610D+00

 Vector    4  Occ=1.000000D+00  E=-7.523610D+00

 Vector    5  Occ=1.000000D+00  E=-7.511347D+00

 Vector    6  Occ=1.000000D+00  E=-1.126822D+00

 Vector    7  Occ=1.000000D+00  E=-6.862904D-01

 Vector    8  Occ=0.000000D+00  E=-6.433884D-01

 Vector    9  Occ=0.000000D+00  E=-6.433883D-01

 Vector   10  Occ=0.000000D+00  E=-1.891505D-01

 Vector   11  Occ=0.000000D+00  E=-1.249378D-01

 Vector   12  Occ=0.000000D+00  E=-1.162854D-01

 Vector   13  Occ=0.000000D+00  E=-1.162817D-01

 Vector   14  Occ=0.000000D+00  E=-7.067611D-02

 Vector   15  Occ=0.000000D+00  E=-7.067609D-02

 Vector   16  Occ=0.000000D+00  E=-6.831708D-02

 Vector   17  Occ=0.000000D+00  E=-5.790809D-02

 Vector   18  Occ=0.000000D+00  E=-5.790792D-02

 Vector   19  Occ=0.000000D+00  E= 1.460921D-01

 Vector   20  Occ=0.000000D+00  E= 1.609824D-01

 Vector   21  Occ=0.000000D+00  E= 1.647084D-01

 Vector   22  Occ=0.000000D+00  E= 1.647115D-01

 Vector   23  Occ=0.000000D+00  E= 6.919182D-01

 Total times  cpu:        5.8s     wall:        6.4s
