 Output coordinates in angstroms (scale by  1.889725989 to convert to a.u.)

  No.       Tag          Charge          X              Y              Z
 ---- ---------------- ---------- -------------- -------------- --------------
    1 Cl                  17.0000     0.00000000     0.00000000     0.00000000

         Total DFT energy =     -460.002952170366

                    DFT Final Alpha Molecular Orbital Analysis
                    ------------------------------------------

 Vector    1  Occ=1.000000D+00  E=-1.011038D+02

 Vector    2  Occ=1.000000D+00  E=-9.310476D+00

 Vector    3  Occ=1.000000D+00  E=-7.080648D+00

 Vector    4  Occ=1.000000D+00  E=-7.057689D+00

 Vector    5  Occ=1.000000D+00  E=-7.057689D+00

 Vector    6  Occ=1.000000D+00  E=-7.932260D-01

 Vector    7  Occ=1.000000D+00  E=-3.758179D-01

 Vector    8  Occ=1.000000D+00  E=-3.190275D-01

 Vector    9  Occ=1.000000D+00  E=-3.190275D-01

 Vector   10  Occ=0.000000D+00  E= 9.491411D-03

 Vector   11  Occ=0.000000D+00  E= 4.949957D-02

 Vector   12  Occ=0.000000D+00  E= 5.676318D-02

 Vector   13  Occ=0.000000D+00  E= 5.676439D-02

 Vector   14  Occ=0.000000D+00  E= 2.078435D-01

 Vector   15  Occ=0.000000D+00  E= 2.150963D-01

 Vector   16  Occ=0.000000D+00  E= 2.150963D-01

 Vector   17  Occ=0.000000D+00  E= 2.422093D-01

 Vector   18  Occ=0.000000D+00  E= 2.422093D-01

 Vector   19  Occ=0.000000D+00  E= 3.720154D-01

 Vector   20  Occ=0.000000D+00  E= 3.802582D-01

 Vector   21  Occ=0.000000D+00  E= 3.992438D-01

 Vector   22  Occ=0.000000D+00  E= 3.992448D-01

 Vector   23  Occ=0.000000D+00  E= 9.942502D-01

 Vector    1  Occ=1.000000D+00  E=-1.010984D+02

 Vector    2  Occ=1.000000D+00  E=-9.305435D+00

 Vector    3  Occ=1.000000D+00  E=-7.064071D+00

 Vector    4  Occ=1.000000D+00  E=-7.053849D+00

 Vector    5  Occ=1.000000D+00  E=-7.053849D+00

 Vector    6  Occ=1.000000D+00  E=-7.460739D-01

 Vector    7  Occ=1.000000D+00  E=-3.054035D-01

 Vector    8  Occ=1.000000D+00  E=-3.054034D-01

 Vector    9  Occ=0.000000D+00  E=-2.770771D-01

 Vector   10  Occ=0.000000D+00  E= 1.601188D-02

 Vector   11  Occ=0.000000D+00  E= 5.834497D-02

 Vector   12  Occ=0.000000D+00  E= 5.834502D-02

 Vector   13  Occ=0.000000D+00  E= 6.206443D-02

 Vector   14  Occ=0.000000D+00  E= 2.468593D-01

 Vector   15  Occ=0.000000D+00  E= 2.468593D-01

 Vector   16  Occ=0.000000D+00  E= 2.515927D-01

 Vector   17  Occ=0.000000D+00  E= 2.515928D-01

 Vector   18  Occ=0.000000D+00  E= 2.578195D-01

 Vector   19  Occ=0.000000D+00  E= 3.847212D-01

 Vector   20  Occ=0.000000D+00  E= 4.041649D-01

 Vector   21  Occ=0.000000D+00  E= 4.041649D-01

 Vector   22  Occ=0.000000D+00  E= 4.053463D-01

 Vector   23  Occ=0.000000D+00  E= 1.052936D+00

 Total times  cpu:        5.8s     wall:        6.4s
