 Output coordinates in angstroms (scale by  1.889725989 to convert to a.u.)

  No.       Tag          Charge          X              Y              Z
 ---- ---------------- ---------- -------------- -------------- --------------
    1 Cl                  17.0000     0.00000000     0.00000000    -0.95047000
    2 Cl                  17.0000     0.00000000     0.00000000     0.95047000

         Total DFT energy =     -919.694621696909

                    DFT Final Alpha Molecular Orbital Analysis
                    ------------------------------------------

 Vector    6  Occ=1.000000D+00  E=-7.418528D+00

 Vector    7  Occ=1.000000D+00  E=-7.414330D+00

 Vector    8  Occ=1.000000D+00  E=-7.414311D+00

 Vector    9  Occ=1.000000D+00  E=-7.400698D+00

 Vector   10  Occ=1.000000D+00  E=-7.400679D+00

 Vector   11  Occ=1.000000D+00  E=-1.226774D+00

 Vector   12  Occ=1.000000D+00  E=-1.037756D+00

 Vector   13  Occ=1.000000D+00  E=-7.629920D-01

 Vector   14  Occ=1.000000D+00  E=-7.172870D-01

 Vector   15  Occ=1.000000D+00  E=-6.870079D-01

 Vector   16  Occ=1.000000D+00  E=-6.031718D-01

 Vector   17  Occ=1.000000D+00  E=-5.691113D-01

 Vector   18  Occ=0.000000D+00  E=-4.249934D-01

 Vector   19  Occ=0.000000D+00  E=-2.002544D-01

 Vector   20  Occ=0.000000D+00  E=-1.377237D-01

 Vector   21  Occ=0.000000D+00  E=-1.293369D-01

 Vector   22  Occ=0.000000D+00  E=-1.274763D-01

 Vector   23  Occ=0.000000D+00  E=-1.271270D-01

 Vector   24  Occ=0.000000D+00  E=-1.084088D-01

 Vector   25  Occ=0.000000D+00  E=-9.931551D-02

 Vector   26  Occ=0.000000D+00  E=-9.807890D-02

 Vector   27  Occ=0.000000D+00  E=-9.174483D-02

 Vector   28  Occ=0.000000D+00  E=-7.795765D-02

 Vector   29  Occ=0.000000D+00  E=-7.346545D-02

 Vector   30  Occ=0.000000D+00  E=-1.757577D-02

 Vector   31  Occ=0.000000D+00  E= 2.586204D-02

 Vector   32  Occ=0.000000D+00  E= 2.620960D-02

 Vector   33  Occ=0.000000D+00  E= 2.992432D-02

 Vector   34  Occ=0.000000D+00  E= 1.400577D-01

 Vector   35  Occ=0.000000D+00  E= 1.527839D-01

 Vector   36  Occ=0.000000D+00  E= 1.609620D-01

 Vector   37  Occ=0.000000D+00  E= 1.651998D-01

 Vector   38  Occ=0.000000D+00  E= 1.667303D-01

 Vector   39  Occ=0.000000D+00  E= 1.757443D-01

 Vector   40  Occ=0.000000D+00  E= 2.345884D-01

 Vector   41  Occ=0.000000D+00  E= 2.663366D-01

 Vector   42  Occ=0.000000D+00  E= 2.807084D-01

 Vector   43  Occ=0.000000D+00  E= 2.838412D-01

 Vector   44  Occ=0.000000D+00  E= 5.495201D-01

 Vector    6  Occ=1.000000D+00  E=-7.416412D+00

 Vector    7  Occ=1.000000D+00  E=-7.404745D+00

 Vector    8  Occ=1.000000D+00  E=-7.404726D+00

 Vector    9  Occ=1.000000D+00  E=-7.398515D+00

 Vector   10  Occ=1.000000D+00  E=-7.398496D+00

 Vector   11  Occ=1.000000D+00  E=-1.211165D+00

 Vector   12  Occ=1.000000D+00  E=-1.011410D+00

 Vector   13  Occ=1.000000D+00  E=-7.522865D-01

 Vector   14  Occ=1.000000D+00  E=-6.817372D-01

 Vector   15  Occ=1.000000D+00  E=-6.750460D-01

 Vector   16  Occ=1.000000D+00  E=-5.623961D-01

 Vector   17  Occ=0.000000D+00  E=-5.488017D-01

 Vector   18  Occ=0.000000D+00  E=-4.141131D-01

 Vector   19  Occ=0.000000D+00  E=-1.953542D-01

 Vector   20  Occ=0.000000D+00  E=-1.288375D-01

 Vector   21  Occ=0.000000D+00  E=-1.278497D-01

 Vector   22  Occ=0.000000D+00  E=-1.235585D-01

 Vector   23  Occ=0.000000D+00  E=-1.216991D-01

 Vector   24  Occ=0.000000D+00  E=-8.996422D-02

 Vector   25  Occ=0.000000D+00  E=-8.942394D-02

 Vector   26  Occ=0.000000D+00  E=-8.266161D-02

 Vector   27  Occ=0.000000D+00  E=-8.185143D-02

 Vector   28  Occ=0.000000D+00  E=-7.197037D-02

 Vector   29  Occ=0.000000D+00  E=-7.040382D-02

 Vector   30  Occ=0.000000D+00  E=-1.391686D-02

 Vector   31  Occ=0.000000D+00  E= 3.589975D-02

 Vector   32  Occ=0.000000D+00  E= 4.706545D-02

 Vector   33  Occ=0.000000D+00  E= 4.826497D-02

 Vector   34  Occ=0.000000D+00  E= 1.435097D-01

 Vector   35  Occ=0.000000D+00  E= 1.664867D-01

 Vector   36  Occ=0.000000D+00  E= 1.702231D-01

 Vector   37  Occ=0.000000D+00  E= 1.710035D-01

 Vector   38  Occ=0.000000D+00  E= 1.756230D-01

 Vector   39  Occ=0.000000D+00  E= 1.780390D-01

 Vector   40  Occ=0.000000D+00  E= 2.429443D-01

 Vector   41  Occ=0.000000D+00  E= 2.830816D-01

 Vector   42  Occ=0.000000D+00  E= 2.836037D-01

 Vector   43  Occ=0.000000D+00  E= 2.895726D-01

 Vector   44  Occ=0.000000D+00  E= 5.583518D-01

     Multipole analysis of the density
     ---------------------------------

     L   x y z        total         alpha         beta         nuclear
     -   - - -        -----         -----         ----         -------
     0   0 0 0      1.000000    -17.000000    -16.000000     34.000000

     1   1 0 0      0.000000      0.000000      0.000000      0.000000
     1   0 1 0     -0.000000     -0.000000     -0.000000      0.000000
     1   0 0 1     -0.000000     -0.000000     -0.000000      0.000000

     2   2 0 0    -16.453846     -8.608323     -7.845523      0.000000
     2   1 1 0      0.441128     -0.045950      0.487078      0.000000
     2   1 0 1     -0.000000     -0.000000     -0.000000      0.000000
     2   0 2 0    -15.518649     -8.705738     -6.812912      0.000000
     2   0 1 1      0.000000      0.000000      0.000000      0.000000

 Total times  cpu:       43.2s     wall:       44.3s
