 Output coordinates in angstroms (scale by  1.889725989 to convert to a.u.)

  No.       Tag          Charge          X              Y              Z
 ---- ---------------- ---------- -------------- -------------- --------------
    1 Cl                  17.0000     0.00000000     0.00000000    -1.00391500
    2 Cl                  17.0000     0.00000000     0.00000000     1.00391500

         Total DFT energy =     -920.104761975898

                       DFT Final Molecular Orbital Analysis
                       ------------------------------------

 Vector    7  Occ=2.000000D+00  E=-7.063303D+00

 Vector    8  Occ=2.000000D+00  E=-7.063303D+00

 Vector    9  Occ=2.000000D+00  E=-7.063295D+00

 Vector   10  Occ=2.000000D+00  E=-7.063295D+00

 Vector   11  Occ=2.000000D+00  E=-8.750254D-01

 Vector   12  Occ=2.000000D+00  E=-7.225759D-01

 Vector   13  Occ=2.000000D+00  E=-4.435126D-01

 Vector   14  Occ=2.000000D+00  E=-3.731195D-01

 Vector   15  Occ=2.000000D+00  E=-3.731193D-01

 Vector   16  Occ=2.000000D+00  E=-2.765818D-01

 Vector   17  Occ=2.000000D+00  E=-2.765815D-01

 Vector   18  Occ=0.000000D+00  E=-1.571452D-01

 Vector   19  Occ=0.000000D+00  E= 5.404592D-03

 Vector   20  Occ=0.000000D+00  E= 3.464476D-02

 Vector   21  Occ=0.000000D+00  E= 4.651250D-02

 Vector   22  Occ=0.000000D+00  E= 4.651252D-02

 Vector   23  Occ=0.000000D+00  E= 5.862628D-02

 Vector   24  Occ=0.000000D+00  E= 8.254623D-02

 Vector   25  Occ=0.000000D+00  E= 8.254624D-02

 Vector   26  Occ=0.000000D+00  E= 1.441354D-01

 Vector   27  Occ=0.000000D+00  E= 1.759273D-01

 Vector   28  Occ=0.000000D+00  E= 1.759273D-01

 Vector   29  Occ=0.000000D+00  E= 1.864359D-01

 Vector   30  Occ=0.000000D+00  E= 1.864360D-01

 Vector   31  Occ=0.000000D+00  E= 2.585942D-01

 Vector   32  Occ=0.000000D+00  E= 2.996569D-01

 Vector   33  Occ=0.000000D+00  E= 2.996570D-01

 Vector   34  Occ=0.000000D+00  E= 3.367078D-01

 Vector   35  Occ=0.000000D+00  E= 3.681282D-01

 Vector   36  Occ=0.000000D+00  E= 3.877535D-01

 Vector   37  Occ=0.000000D+00  E= 3.877535D-01

 Vector   38  Occ=0.000000D+00  E= 3.887414D-01

 Vector   39  Occ=0.000000D+00  E= 3.887415D-01

 Vector   40  Occ=0.000000D+00  E= 4.517643D-01

 Vector   41  Occ=0.000000D+00  E= 5.079963D-01

     Multipole analysis of the density
     ---------------------------------

     L   x y z        total         alpha         beta         nuclear
     -   - - -        -----         -----         ----         -------
     0   0 0 0     -0.000000    -17.000000    -17.000000     34.000000

     1   1 0 0     -0.000000     -0.000000     -0.000000      0.000000
     1   0 1 0      0.000000      0.000000      0.000000      0.000000
     1   0 0 1     -0.000010     -0.000005     -0.000005      0.000000

     2   2 0 0    -18.954829     -9.477415     -9.477415      0.000000
     2   1 1 0     -0.000001     -0.000001     -0.000001      0.000000
     2   1 0 1      0.000000      0.000000      0.000000      0.000000
     2   0 2 0    -18.954829     -9.477414     -9.477414      0.000000
     2   0 1 1     -0.000000     -0.000000     -0.000000      0.000000

 Total times  cpu:       18.8s     wall:       19.8s
