 Output coordinates in angstroms (scale by  1.889725989 to convert to a.u.)

  No.       Tag          Charge          X              Y              Z
 ---- ---------------- ---------- -------------- -------------- --------------
    1 O                    8.0000     0.00000000     0.00000000     0.00000000

         Total DFT energy =      -74.560329629732

                    DFT Final Alpha Molecular Orbital Analysis
                    ------------------------------------------

 Vector    1  Occ=1.000000D+00  E=-1.974935D+01

 Vector    2  Occ=1.000000D+00  E=-1.563179D+00

 Vector    3  Occ=1.000000D+00  E=-9.763290D-01

 Vector    4  Occ=1.000000D+00  E=-9.763290D-01

 Vector    5  Occ=1.000000D+00  E=-9.763290D-01

 Vector    6  Occ=0.000000D+00  E=-2.187125D-01

 Vector    7  Occ=0.000000D+00  E=-1.290281D-01

 Vector    8  Occ=0.000000D+00  E=-1.290281D-01

 Vector    9  Occ=0.000000D+00  E=-1.290281D-01

 Vector   10  Occ=0.000000D+00  E= 3.106863D-01

 Vector   11  Occ=0.000000D+00  E= 3.106863D-01

 Vector   12  Occ=0.000000D+00  E= 3.106863D-01

 Vector   13  Occ=0.000000D+00  E= 3.106863D-01

 Vector   14  Occ=0.000000D+00  E= 3.106863D-01

 Vector   15  Occ=0.000000D+00  E= 3.624188D-01

 Vector   16  Occ=0.000000D+00  E= 5.080015D-01

 Vector    1  Occ=1.000000D+00  E=-1.966597D+01

 Vector    2  Occ=1.000000D+00  E=-1.323570D+00

 Vector    3  Occ=0.000000D+00  E=-7.255499D-01

 Vector    4  Occ=0.000000D+00  E=-7.255499D-01

 Vector    5  Occ=0.000000D+00  E=-7.255499D-01

 Vector    6  Occ=0.000000D+00  E=-1.770266D-01

 Vector    7  Occ=0.000000D+00  E=-8.895510D-02

 Vector    8  Occ=0.000000D+00  E=-8.895510D-02

 Vector    9  Occ=0.000000D+00  E=-8.895510D-02

 Vector   10  Occ=0.000000D+00  E= 3.847306D-01

 Vector   11  Occ=0.000000D+00  E= 3.847306D-01

 Vector   12  Occ=0.000000D+00  E= 3.847306D-01

 Vector   13  Occ=0.000000D+00  E= 3.847306D-01

 Vector   14  Occ=0.000000D+00  E= 3.847306D-01

 Vector   15  Occ=0.000000D+00  E= 4.243659D-01

 Vector   16  Occ=0.000000D+00  E= 6.154574D-01

 Total times  cpu:        1.9s     wall:        2.5s
