 Output coordinates in angstroms (scale by  1.889725989 to convert to a.u.)

  No.       Tag          Charge          X              Y              Z
 ---- ---------------- ---------- -------------- -------------- --------------
    1 O                    8.0000     0.00000000     0.00000000     0.00000000

         Total DFT energy =      -75.074779337909

                    DFT Final Alpha Molecular Orbital Analysis
                    ------------------------------------------

 Vector    1  Occ=1.000000D+00  E=-1.906371D+01

 Vector    2  Occ=1.000000D+00  E=-9.567710D-01

 Vector    3  Occ=1.000000D+00  E=-4.061023D-01

 Vector    4  Occ=1.000000D+00  E=-4.061022D-01

 Vector    5  Occ=1.000000D+00  E=-3.270749D-01

 Vector    6  Occ=0.000000D+00  E= 5.976425D-02

 Vector    7  Occ=0.000000D+00  E= 1.283916D-01

 Vector    8  Occ=0.000000D+00  E= 1.284206D-01

 Vector    9  Occ=0.000000D+00  E= 1.393229D-01

 Vector   10  Occ=0.000000D+00  E= 6.996683D-01

 Vector   11  Occ=0.000000D+00  E= 6.996708D-01

 Vector   12  Occ=0.000000D+00  E= 7.009793D-01

 Vector   13  Occ=0.000000D+00  E= 7.210989D-01

 Vector   14  Occ=0.000000D+00  E= 7.210989D-01

 Vector   15  Occ=0.000000D+00  E= 7.312161D-01

 Vector    1  Occ=1.000000D+00  E=-1.901363D+01

 Vector    2  Occ=1.000000D+00  E=-8.115975D-01

 Vector    3  Occ=1.000000D+00  E=-2.946831D-01

 Vector    4  Occ=0.000000D+00  E=-2.086915D-01

 Vector    5  Occ=0.000000D+00  E=-2.086904D-01

 Vector    6  Occ=0.000000D+00  E= 8.157862D-02

 Vector    7  Occ=0.000000D+00  E= 1.459540D-01

 Vector    8  Occ=0.000000D+00  E= 1.648348D-01

 Vector    9  Occ=0.000000D+00  E= 1.648537D-01

 Vector   10  Occ=0.000000D+00  E= 7.490569D-01

 Vector   11  Occ=0.000000D+00  E= 7.546698D-01

 Vector   12  Occ=0.000000D+00  E= 7.546701D-01

 Vector   13  Occ=0.000000D+00  E= 7.568665D-01

 Vector   14  Occ=0.000000D+00  E= 7.677475D-01

 Vector   15  Occ=0.000000D+00  E= 7.677517D-01

 Total times  cpu:        2.0s     wall:        2.5s
