 Output coordinates in angstroms (scale by  1.889725989 to convert to a.u.)

  No.       Tag          Charge          X              Y              Z
 ---- ---------------- ---------- -------------- -------------- --------------
    1 O                    8.0000     0.00000000     0.00000000    -0.55499500
    2 O                    8.0000     0.00000000     0.00000000     0.55499500

         Total DFT energy =     -149.901908648708

                    DFT Final Alpha Molecular Orbital Analysis
                    ------------------------------------------

 Vector    1  Occ=1.000000D+00  E=-1.958665D+01

 Vector    2  Occ=1.000000D+00  E=-1.958640D+01

 Vector    3  Occ=1.000000D+00  E=-1.783730D+00

 Vector    4  Occ=1.000000D+00  E=-1.188873D+00

 Vector    5  Occ=1.000000D+00  E=-9.928375D-01

 Vector    6  Occ=1.000000D+00  E=-9.766847D-01

 Vector    7  Occ=1.000000D+00  E=-9.558567D-01

 Vector    8  Occ=1.000000D+00  E=-6.703046D-01

 Vector    9  Occ=0.000000D+00  E=-6.412646D-01

 Vector   10  Occ=0.000000D+00  E=-1.890619D-01

 Vector   11  Occ=0.000000D+00  E=-1.675748D-01

 Vector   12  Occ=0.000000D+00  E=-1.236158D-01

 Vector   13  Occ=0.000000D+00  E=-1.224444D-01

 Vector   14  Occ=0.000000D+00  E=-5.481143D-02

 Vector   15  Occ=0.000000D+00  E=-4.925833D-02

 Vector   16  Occ=0.000000D+00  E=-1.757764D-02

 Vector   17  Occ=0.000000D+00  E=-1.614176D-02

 Vector   18  Occ=0.000000D+00  E= 1.052769D-01

 Vector   19  Occ=0.000000D+00  E= 2.413265D-01

 Vector   20  Occ=0.000000D+00  E= 2.416996D-01

 Vector   21  Occ=0.000000D+00  E= 3.853548D-01

 Vector   22  Occ=0.000000D+00  E= 4.638009D-01

 Vector   23  Occ=0.000000D+00  E= 4.839326D-01

 Vector   24  Occ=0.000000D+00  E= 4.870030D-01

 Vector   25  Occ=0.000000D+00  E= 5.228218D-01

 Vector    1  Occ=1.000000D+00  E=-1.957168D+01

 Vector    2  Occ=1.000000D+00  E=-1.957143D+01

 Vector    3  Occ=1.000000D+00  E=-1.761722D+00

 Vector    4  Occ=1.000000D+00  E=-1.150448D+00

 Vector    5  Occ=1.000000D+00  E=-9.651131D-01

 Vector    6  Occ=1.000000D+00  E=-9.393912D-01

 Vector    7  Occ=1.000000D+00  E=-9.174255D-01

 Vector    8  Occ=0.000000D+00  E=-6.254385D-01

 Vector    9  Occ=0.000000D+00  E=-5.725798D-01

 Vector   10  Occ=0.000000D+00  E=-1.840655D-01

 Vector   11  Occ=0.000000D+00  E=-1.532521D-01

 Vector   12  Occ=0.000000D+00  E=-1.217315D-01

 Vector   13  Occ=0.000000D+00  E=-1.127954D-01

 Vector   14  Occ=0.000000D+00  E=-4.730211D-02

 Vector   15  Occ=0.000000D+00  E=-4.173996D-02

 Vector   16  Occ=0.000000D+00  E=-1.378704D-02

 Vector   17  Occ=0.000000D+00  E=-6.514644D-03

 Vector   18  Occ=0.000000D+00  E= 1.094128D-01

 Vector   19  Occ=0.000000D+00  E= 2.539972D-01

 Vector   20  Occ=0.000000D+00  E= 2.542790D-01

 Vector   21  Occ=0.000000D+00  E= 3.918889D-01

 Vector   22  Occ=0.000000D+00  E= 4.704418D-01

 Vector   23  Occ=0.000000D+00  E= 4.868126D-01

 Vector   24  Occ=0.000000D+00  E= 5.036547D-01

     Multipole analysis of the density
     ---------------------------------

     L   x y z        total         alpha         beta         nuclear
     -   - - -        -----         -----         ----         -------
     0   0 0 0      1.000000     -8.000000     -7.000000     16.000000

     1   1 0 0     -0.000000     -0.000000     -0.000000      0.000000
     1   0 1 0      0.000000      0.000000      0.000000      0.000000
     1   0 0 1     -0.000069     -0.000027     -0.000043      0.000000

     2   2 0 0     -5.652593     -2.978655     -2.673938      0.000000
     2   1 1 0      0.179458      0.188839     -0.009381      0.000000
     2   1 0 1     -0.000000     -0.000000     -0.000000      0.000000
     2   0 2 0     -6.088013     -3.436835     -2.651178      0.000000
     2   0 1 1      0.000000      0.000000      0.000000      0.000000

 Total times  cpu:       10.0s     wall:       10.7s
