 Output coordinates in angstroms (scale by  1.889725989 to convert to a.u.)

  No.       Tag          Charge          X              Y              Z
 ---- ---------------- ---------- -------------- -------------- --------------
    1 O                    8.0000     0.00000000     0.00000000    -0.60066000
    2 O                    8.0000     0.00000000     0.00000000     0.60066000

         Total DFT energy =     -150.349451742183

                    DFT Final Alpha Molecular Orbital Analysis
                    ------------------------------------------

 Vector    1  Occ=1.000000D+00  E=-1.907195D+01

 Vector    2  Occ=1.000000D+00  E=-1.907187D+01

 Vector    3  Occ=1.000000D+00  E=-1.237500D+00

 Vector    4  Occ=1.000000D+00  E=-7.815750D-01

 Vector    5  Occ=1.000000D+00  E=-5.101573D-01

 Vector    6  Occ=1.000000D+00  E=-5.101573D-01

 Vector    7  Occ=1.000000D+00  E=-5.038488D-01

 Vector    8  Occ=1.000000D+00  E=-2.557737D-01

 Vector    9  Occ=1.000000D+00  E=-2.557737D-01

 Vector   10  Occ=0.000000D+00  E= 6.223059D-02

 Vector   11  Occ=0.000000D+00  E= 6.972821D-02

 Vector   12  Occ=0.000000D+00  E= 1.182243D-01

 Vector   13  Occ=0.000000D+00  E= 1.182243D-01

 Vector   14  Occ=0.000000D+00  E= 1.802149D-01

 Vector   15  Occ=0.000000D+00  E= 1.941296D-01

 Vector   16  Occ=0.000000D+00  E= 1.941296D-01

 Vector   17  Occ=0.000000D+00  E= 2.148921D-01

 Vector   18  Occ=0.000000D+00  E= 3.068683D-01

 Vector   19  Occ=0.000000D+00  E= 5.960193D-01

 Vector    1  Occ=1.000000D+00  E=-1.904453D+01

 Vector    2  Occ=1.000000D+00  E=-1.904445D+01

 Vector    3  Occ=1.000000D+00  E=-1.190431D+00

 Vector    4  Occ=1.000000D+00  E=-7.080848D-01

 Vector    5  Occ=1.000000D+00  E=-4.731562D-01

 Vector    6  Occ=1.000000D+00  E=-4.312247D-01

 Vector    7  Occ=1.000000D+00  E=-4.312247D-01

 Vector    8  Occ=0.000000D+00  E=-1.555301D-01

 Vector    9  Occ=0.000000D+00  E=-1.555301D-01

 Vector   10  Occ=0.000000D+00  E= 7.204181D-02

 Vector   11  Occ=0.000000D+00  E= 8.506254D-02

 Vector   12  Occ=0.000000D+00  E= 1.294847D-01

 Vector   13  Occ=0.000000D+00  E= 1.294847D-01

 Vector   14  Occ=0.000000D+00  E= 1.840188D-01

 Vector   15  Occ=0.000000D+00  E= 2.096258D-01

 Vector   16  Occ=0.000000D+00  E= 2.096258D-01

 Vector   17  Occ=0.000000D+00  E= 2.516470D-01

 Vector   18  Occ=0.000000D+00  E= 3.165193D-01

 Vector   19  Occ=0.000000D+00  E= 6.206899D-01

     Multipole analysis of the density
     ---------------------------------

     L   x y z        total         alpha         beta         nuclear
     -   - - -        -----         -----         ----         -------
     0   0 0 0     -0.000000     -9.000000     -7.000000     16.000000

     1   1 0 0     -0.000000     -0.000000     -0.000000      0.000000
     1   0 1 0      0.000000      0.000000      0.000000      0.000000
     1   0 0 1      0.000007      0.000001      0.000006      0.000000

     2   2 0 0     -7.530038     -4.390602     -3.139437      0.000000
     2   1 1 0     -0.000000      0.000000     -0.000000      0.000000
     2   1 0 1     -0.000000     -0.000000      0.000000      0.000000
     2   0 2 0     -7.530038     -4.390602     -3.139437      0.000000
     2   0 1 1      0.000000      0.000000      0.000000      0.000000

 Total times  cpu:        9.8s     wall:       10.5s
