 Output coordinates in angstroms (scale by  1.889725989 to convert to a.u.)

  No.       Tag          Charge          X              Y              Z
 ---- ---------------- ---------- -------------- -------------- --------------
    1 H                    1.0000     0.00000000     0.00000000    -0.91251556
    2 O                    8.0000     0.00000000     0.00000000     0.11406444

         Total DFT energy =      -75.269282860436

                    DFT Final Alpha Molecular Orbital Analysis
                    ------------------------------------------

 Vector    1  Occ=1.000000D+00  E=-1.959548D+01

 Vector    2  Occ=1.000000D+00  E=-1.495765D+00

 Vector    3  Occ=1.000000D+00  E=-9.191665D-01

 Vector    4  Occ=1.000000D+00  E=-8.840730D-01

 Vector    5  Occ=1.000000D+00  E=-8.840730D-01

 Vector    6  Occ=0.000000D+00  E=-3.355006D-01

 Vector    7  Occ=0.000000D+00  E=-1.586120D-01

 Vector    8  Occ=0.000000D+00  E=-1.249382D-01

 Vector    9  Occ=0.000000D+00  E=-1.249382D-01

 Vector   10  Occ=0.000000D+00  E=-9.173688D-02

 Vector   11  Occ=0.000000D+00  E=-3.180405D-02

 Vector   12  Occ=0.000000D+00  E= 5.064631D-02

 Vector   13  Occ=0.000000D+00  E= 5.064631D-02

 Vector   14  Occ=0.000000D+00  E= 1.315029D-01

 Vector   15  Occ=0.000000D+00  E= 3.387402D-01

 Vector   16  Occ=0.000000D+00  E= 3.387417D-01

 Vector   17  Occ=0.000000D+00  E= 3.528057D-01

 Vector   18  Occ=0.000000D+00  E= 5.122157D-01

 Vector    1  Occ=1.000000D+00  E=-1.954087D+01

 Vector    2  Occ=1.000000D+00  E=-1.357373D+00

 Vector    3  Occ=1.000000D+00  E=-8.833487D-01

 Vector    4  Occ=0.000000D+00  E=-6.593627D-01

 Vector    5  Occ=0.000000D+00  E=-6.593627D-01

 Vector    6  Occ=0.000000D+00  E=-3.008010D-01

 Vector    7  Occ=0.000000D+00  E=-1.393556D-01

 Vector    8  Occ=0.000000D+00  E=-9.040229D-02

 Vector    9  Occ=0.000000D+00  E=-9.040228D-02

 Vector   10  Occ=0.000000D+00  E=-8.168554D-02

 Vector   11  Occ=0.000000D+00  E=-1.905283D-02

 Vector   12  Occ=0.000000D+00  E= 6.372421D-02

 Vector   13  Occ=0.000000D+00  E= 6.372421D-02

 Vector   14  Occ=0.000000D+00  E= 1.509463D-01

 Vector   15  Occ=0.000000D+00  E= 3.700420D-01

 Vector   16  Occ=0.000000D+00  E= 4.053915D-01

 Vector   17  Occ=0.000000D+00  E= 4.053916D-01

 Vector   18  Occ=0.000000D+00  E= 5.487799D-01

     Multipole analysis of the density
     ---------------------------------

     L   x y z        total         alpha         beta         nuclear
     -   - - -        -----         -----         ----         -------
     0   0 0 0      1.000000     -5.000000     -3.000000      9.000000

     1   1 0 0     -0.000000     -0.000000     -0.000000      0.000000
     1   0 1 0      0.000000      0.000000     -0.000000      0.000000
     1   0 0 1     -0.775852     -0.568927     -0.206925      0.000000

     2   2 0 0     -3.031106     -2.162364     -0.868742      0.000000
     2   1 1 0     -0.000000     -0.000000     -0.000000      0.000000
     2   1 0 1      0.000000      0.000000      0.000000      0.000000
     2   0 2 0     -3.031106     -2.162364     -0.868742      0.000000
     2   0 1 1     -0.000000     -0.000000     -0.000000      0.000000

 Total times  cpu:        5.5s     wall:        6.2s
