 Output coordinates in angstroms (scale by  1.889725989 to convert to a.u.)

  No.       Tag          Charge          X              Y              Z
 ---- ---------------- ---------- -------------- -------------- --------------
    1 P                   15.0000     0.00000000     0.00000000     0.00000000

         Total DFT energy =     -340.768656243109

                    DFT Final Alpha Molecular Orbital Analysis
                    ------------------------------------------

 Vector    1  Occ=1.000000D+00  E=-7.708014D+01

 Vector    2  Occ=1.000000D+00  E=-6.817223D+00

 Vector    3  Occ=1.000000D+00  E=-4.985738D+00

 Vector    4  Occ=1.000000D+00  E=-4.975874D+00

 Vector    5  Occ=1.000000D+00  E=-4.975874D+00

 Vector    6  Occ=1.000000D+00  E=-8.955466D-01

 Vector    7  Occ=1.000000D+00  E=-5.590438D-01

 Vector    8  Occ=1.000000D+00  E=-5.590438D-01

 Vector    9  Occ=0.000000D+00  E=-5.355233D-01

 Vector   10  Occ=0.000000D+00  E=-1.836984D-01

 Vector   11  Occ=0.000000D+00  E=-1.305483D-01

 Vector   12  Occ=0.000000D+00  E=-1.305483D-01

 Vector   13  Occ=0.000000D+00  E=-1.282814D-01

 Vector   14  Occ=0.000000D+00  E=-1.282814D-01

 Vector   15  Occ=0.000000D+00  E=-1.255720D-01

 Vector   16  Occ=0.000000D+00  E=-1.235344D-01

 Vector   17  Occ=0.000000D+00  E=-1.235188D-01

 Vector   18  Occ=0.000000D+00  E=-1.216616D-01

 Vector   19  Occ=0.000000D+00  E= 5.367233D-02

 Vector   20  Occ=0.000000D+00  E= 5.740014D-02

 Vector   21  Occ=0.000000D+00  E= 5.741172D-02

 Vector   22  Occ=0.000000D+00  E= 6.590723D-02

 Vector   23  Occ=0.000000D+00  E= 4.894246D-01

 Vector   24  Occ=0.000000D+00  E= 4.894246D-01

 Vector   25  Occ=0.000000D+00  E= 4.906330D-01

 Vector   26  Occ=0.000000D+00  E= 4.944285D-01

 Vector   27  Occ=0.000000D+00  E= 4.944286D-01

 Vector   28  Occ=0.000000D+00  E= 6.520230D-01

 Vector    1  Occ=1.000000D+00  E=-7.707132D+01

 Vector    2  Occ=1.000000D+00  E=-6.809323D+00

 Vector    3  Occ=1.000000D+00  E=-4.980295D+00

 Vector    4  Occ=1.000000D+00  E=-4.959552D+00

 Vector    5  Occ=1.000000D+00  E=-4.959552D+00

 Vector    6  Occ=1.000000D+00  E=-8.046916D-01

 Vector    7  Occ=0.000000D+00  E=-5.034296D-01

 Vector    8  Occ=0.000000D+00  E=-4.516217D-01

 Vector    9  Occ=0.000000D+00  E=-4.516217D-01

 Vector   10  Occ=0.000000D+00  E=-1.562165D-01

 Vector   11  Occ=0.000000D+00  E=-1.098710D-01

 Vector   12  Occ=0.000000D+00  E=-9.337857D-02

 Vector   13  Occ=0.000000D+00  E=-9.337839D-02

 Vector   14  Occ=0.000000D+00  E=-9.078359D-02

 Vector   15  Occ=0.000000D+00  E=-8.135217D-02

 Vector   16  Occ=0.000000D+00  E=-8.135217D-02

 Vector   17  Occ=0.000000D+00  E=-5.976950D-02

 Vector   18  Occ=0.000000D+00  E=-5.976950D-02

 Vector   19  Occ=0.000000D+00  E= 6.660131D-02

 Vector   20  Occ=0.000000D+00  E= 8.520763D-02

 Vector   21  Occ=0.000000D+00  E= 8.520781D-02

 Vector   22  Occ=0.000000D+00  E= 9.041827D-02

 Vector   23  Occ=0.000000D+00  E= 5.270412D-01

 Total times  cpu:        5.8s     wall:        6.4s
