 Output coordinates in angstroms (scale by  1.889725989 to convert to a.u.)

  No.       Tag          Charge          X              Y              Z
 ---- ---------------- ---------- -------------- -------------- --------------
    1 P                   15.0000     0.00000000     0.00000000     0.00000000

         Total DFT energy =     -341.153147457444

                    DFT Final Alpha Molecular Orbital Analysis
                    ------------------------------------------

 Vector    1  Occ=1.000000D+00  E=-7.666989D+01

 Vector    2  Occ=1.000000D+00  E=-6.415750D+00

 Vector    3  Occ=1.000000D+00  E=-4.577627D+00

 Vector    4  Occ=1.000000D+00  E=-4.577627D+00

 Vector    5  Occ=1.000000D+00  E=-4.577627D+00

 Vector    6  Occ=1.000000D+00  E=-5.589933D-01

 Vector    7  Occ=1.000000D+00  E=-2.370912D-01

 Vector    8  Occ=1.000000D+00  E=-2.370912D-01

 Vector    9  Occ=1.000000D+00  E=-2.370912D-01

 Vector   10  Occ=0.000000D+00  E=-7.237796D-04

 Vector   11  Occ=0.000000D+00  E= 3.184917D-02

 Vector   12  Occ=0.000000D+00  E= 3.184917D-02

 Vector   13  Occ=0.000000D+00  E= 3.184917D-02

 Vector   14  Occ=0.000000D+00  E= 1.426763D-01

 Vector   15  Occ=0.000000D+00  E= 1.426763D-01

 Vector   16  Occ=0.000000D+00  E= 1.426763D-01

 Vector   17  Occ=0.000000D+00  E= 1.426763D-01

 Vector   18  Occ=0.000000D+00  E= 1.426763D-01

 Vector   19  Occ=0.000000D+00  E= 2.533749D-01

 Vector   20  Occ=0.000000D+00  E= 2.533749D-01

 Vector   21  Occ=0.000000D+00  E= 2.533749D-01

 Vector   22  Occ=0.000000D+00  E= 2.699544D-01

 Vector   23  Occ=0.000000D+00  E= 8.113077D-01

 Vector    1  Occ=1.000000D+00  E=-7.665898D+01

 Vector    2  Occ=1.000000D+00  E=-6.405649D+00

 Vector    3  Occ=1.000000D+00  E=-4.561575D+00

 Vector    4  Occ=1.000000D+00  E=-4.561575D+00

 Vector    5  Occ=1.000000D+00  E=-4.561575D+00

 Vector    6  Occ=1.000000D+00  E=-4.402934D-01

 Vector    7  Occ=0.000000D+00  E=-1.336918D-01

 Vector    8  Occ=0.000000D+00  E=-1.336918D-01

 Vector    9  Occ=0.000000D+00  E=-1.336918D-01

 Vector   10  Occ=0.000000D+00  E= 3.320706D-02

 Vector   11  Occ=0.000000D+00  E= 6.537772D-02

 Vector   12  Occ=0.000000D+00  E= 6.537772D-02

 Vector   13  Occ=0.000000D+00  E= 6.537772D-02

 Vector   14  Occ=0.000000D+00  E= 2.096191D-01

 Vector   15  Occ=0.000000D+00  E= 2.096191D-01

 Vector   16  Occ=0.000000D+00  E= 2.096191D-01

 Vector   17  Occ=0.000000D+00  E= 2.096191D-01

 Vector   18  Occ=0.000000D+00  E= 2.096191D-01

 Vector   19  Occ=0.000000D+00  E= 2.859033D-01

 Vector   20  Occ=0.000000D+00  E= 2.859033D-01

 Vector   21  Occ=0.000000D+00  E= 2.859033D-01

 Vector   22  Occ=0.000000D+00  E= 3.086572D-01

 Vector   23  Occ=0.000000D+00  E= 8.967221D-01

 Total times  cpu:        6.1s     wall:        6.7s
