 Output coordinates in angstroms (scale by  1.889725989 to convert to a.u.)

  No.       Tag          Charge          X              Y              Z
 ---- ---------------- ---------- -------------- -------------- --------------
    1 P                   15.0000     0.00000000     0.00000000    -0.08891125
    2 H                    1.0000     0.00000000     0.00000000     1.33366875

         Total DFT energy =     -341.403891726558

                    DFT Final Alpha Molecular Orbital Analysis
                    ------------------------------------------

 Vector    1  Occ=1.000000D+00  E=-7.705219D+01

 Vector    2  Occ=1.000000D+00  E=-6.792183D+00

 Vector    3  Occ=1.000000D+00  E=-4.962009D+00

 Vector    4  Occ=1.000000D+00  E=-4.952116D+00

 Vector    5  Occ=1.000000D+00  E=-4.943542D+00

 Vector    6  Occ=1.000000D+00  E=-9.041864D-01

 Vector    7  Occ=1.000000D+00  E=-6.308927D-01

 Vector    8  Occ=1.000000D+00  E=-5.465660D-01

 Vector    9  Occ=0.000000D+00  E=-5.198961D-01

 Vector   10  Occ=0.000000D+00  E=-2.617043D-01

 Vector   11  Occ=0.000000D+00  E=-1.823867D-01

 Vector   12  Occ=0.000000D+00  E=-1.292915D-01

 Vector   13  Occ=0.000000D+00  E=-1.284589D-01

 Vector   14  Occ=0.000000D+00  E=-1.282154D-01

 Vector   15  Occ=0.000000D+00  E=-1.212835D-01

 Vector   16  Occ=0.000000D+00  E=-1.210806D-01

 Vector   17  Occ=0.000000D+00  E=-1.200537D-01

 Vector   18  Occ=0.000000D+00  E=-1.153083D-01

 Vector   19  Occ=0.000000D+00  E=-5.948332D-02

 Vector   20  Occ=0.000000D+00  E= 2.881182D-02

 Vector   21  Occ=0.000000D+00  E= 5.590863D-02

 Vector   22  Occ=0.000000D+00  E= 5.716992D-02

 Vector   23  Occ=0.000000D+00  E= 5.894775D-02

 Vector   24  Occ=0.000000D+00  E= 1.590489D-01

 Vector   25  Occ=0.000000D+00  E= 2.074628D-01

 Vector   26  Occ=0.000000D+00  E= 2.171696D-01

 Vector   27  Occ=0.000000D+00  E= 2.200200D-01

 Vector   28  Occ=0.000000D+00  E= 4.614037D-01

 Vector   29  Occ=0.000000D+00  E= 5.035608D-01

 Vector    1  Occ=1.000000D+00  E=-7.704785D+01

 Vector    2  Occ=1.000000D+00  E=-6.788124D+00

 Vector    3  Occ=1.000000D+00  E=-4.959202D+00

 Vector    4  Occ=1.000000D+00  E=-4.940491D+00

 Vector    5  Occ=1.000000D+00  E=-4.938708D+00

 Vector    6  Occ=1.000000D+00  E=-8.681788D-01

 Vector    7  Occ=1.000000D+00  E=-6.207071D-01

 Vector    8  Occ=0.000000D+00  E=-4.998646D-01

 Vector    9  Occ=0.000000D+00  E=-4.501320D-01

 Vector   10  Occ=0.000000D+00  E=-2.414154D-01

 Vector   11  Occ=0.000000D+00  E=-1.700933D-01

 Vector   12  Occ=0.000000D+00  E=-1.238607D-01

 Vector   13  Occ=0.000000D+00  E=-1.222394D-01

 Vector   14  Occ=0.000000D+00  E=-1.125172D-01

 Vector   15  Occ=0.000000D+00  E=-1.037446D-01

 Vector   16  Occ=0.000000D+00  E=-9.092449D-02

 Vector   17  Occ=0.000000D+00  E=-7.861137D-02

 Vector   18  Occ=0.000000D+00  E=-7.818115D-02

 Vector   19  Occ=0.000000D+00  E=-5.328089D-02

 Vector   20  Occ=0.000000D+00  E= 3.989615D-02

 Vector   21  Occ=0.000000D+00  E= 6.275789D-02

 Vector   22  Occ=0.000000D+00  E= 6.345859D-02

 Vector   23  Occ=0.000000D+00  E= 8.128111D-02

 Vector   24  Occ=0.000000D+00  E= 1.697699D-01

 Vector   25  Occ=0.000000D+00  E= 2.211859D-01

 Vector   26  Occ=0.000000D+00  E= 2.226723D-01

 Vector   27  Occ=0.000000D+00  E= 2.326831D-01

 Vector   28  Occ=0.000000D+00  E= 4.704577D-01

 Vector   29  Occ=0.000000D+00  E= 5.238592D-01

     Multipole analysis of the density
     ---------------------------------

     L   x y z        total         alpha         beta         nuclear
     -   - - -        -----         -----         ----         -------
     0   0 0 0      1.000000     -8.000000     -7.000000     16.000000

     1   1 0 0     -0.000000     -0.000000     -0.000000      0.000000
     1   0 1 0      0.000000     -0.000000      0.000000      0.000000
     1   0 0 1      0.262138      0.146829      0.115308      0.000000

     2   2 0 0     -6.241247     -3.642793     -2.598453      0.000000
     2   1 1 0     -0.346100     -0.379540      0.033440      0.000000
     2   1 0 1      0.000000     -0.000000      0.000000      0.000000
     2   0 2 0     -8.142908     -5.728206     -2.414702      0.000000
     2   0 1 1      0.000000      0.000000      0.000000      0.000000

 Total times  cpu:       13.4s     wall:       14.0s
