 Output coordinates in angstroms (scale by  1.889725989 to convert to a.u.)

  No.       Tag          Charge          X              Y              Z
 ---- ---------------- ---------- -------------- -------------- --------------
    1 P                   15.0000     0.00000000     0.00000000    -0.08887625
    2 H                    1.0000     0.00000000     0.00000000     1.33314375

         Total DFT energy =     -341.779561133670

                    DFT Final Alpha Molecular Orbital Analysis
                    ------------------------------------------

 Vector    1  Occ=1.000000D+00  E=-7.665737D+01

 Vector    2  Occ=1.000000D+00  E=-6.405242D+00

 Vector    3  Occ=1.000000D+00  E=-4.568292D+00

 Vector    4  Occ=1.000000D+00  E=-4.568292D+00

 Vector    5  Occ=1.000000D+00  E=-4.560965D+00

 Vector    6  Occ=1.000000D+00  E=-5.815728D-01

 Vector    7  Occ=1.000000D+00  E=-3.225788D-01

 Vector    8  Occ=1.000000D+00  E=-2.334331D-01

 Vector    9  Occ=1.000000D+00  E=-2.334331D-01

 Vector   10  Occ=0.000000D+00  E=-1.753396D-02

 Vector   11  Occ=0.000000D+00  E= 1.787095D-02

 Vector   12  Occ=0.000000D+00  E= 2.789371D-02

 Vector   13  Occ=0.000000D+00  E= 3.117616D-02

 Vector   14  Occ=0.000000D+00  E= 3.117616D-02

 Vector   15  Occ=0.000000D+00  E= 8.668502D-02

 Vector   16  Occ=0.000000D+00  E= 1.398346D-01

 Vector   17  Occ=0.000000D+00  E= 1.398346D-01

 Vector   18  Occ=0.000000D+00  E= 1.441029D-01

 Vector   19  Occ=0.000000D+00  E= 1.441038D-01

 Vector   20  Occ=0.000000D+00  E= 2.302881D-01

 Vector   21  Occ=0.000000D+00  E= 2.486753D-01

 Vector   22  Occ=0.000000D+00  E= 2.532050D-01

 Vector   23  Occ=0.000000D+00  E= 2.532050D-01

 Vector   24  Occ=0.000000D+00  E= 3.672004D-01

 Vector   25  Occ=0.000000D+00  E= 4.387813D-01

 Vector   26  Occ=0.000000D+00  E= 4.518003D-01

 Vector   27  Occ=0.000000D+00  E= 4.518003D-01

 Vector   28  Occ=0.000000D+00  E= 6.904536D-01

 Vector    1  Occ=1.000000D+00  E=-7.665010D+01

 Vector    2  Occ=1.000000D+00  E=-6.398271D+00

 Vector    3  Occ=1.000000D+00  E=-4.555848D+00

 Vector    4  Occ=1.000000D+00  E=-4.554465D+00

 Vector    5  Occ=1.000000D+00  E=-4.554465D+00

 Vector    6  Occ=1.000000D+00  E=-5.213669D-01

 Vector    7  Occ=1.000000D+00  E=-3.004224D-01

 Vector    8  Occ=0.000000D+00  E=-1.391206D-01

 Vector    9  Occ=0.000000D+00  E=-1.391206D-01

 Vector   10  Occ=0.000000D+00  E=-1.471105D-03

 Vector   11  Occ=0.000000D+00  E= 3.385098D-02

 Vector   12  Occ=0.000000D+00  E= 4.507044D-02

 Vector   13  Occ=0.000000D+00  E= 5.452839D-02

 Vector   14  Occ=0.000000D+00  E= 5.452839D-02

 Vector   15  Occ=0.000000D+00  E= 1.045722D-01

 Vector   16  Occ=0.000000D+00  E= 1.751465D-01

 Vector   17  Occ=0.000000D+00  E= 1.751465D-01

 Vector   18  Occ=0.000000D+00  E= 2.075799D-01

 Vector   19  Occ=0.000000D+00  E= 2.075822D-01

 Vector   20  Occ=0.000000D+00  E= 2.458134D-01

 Vector   21  Occ=0.000000D+00  E= 2.633368D-01

 Vector   22  Occ=0.000000D+00  E= 2.821633D-01

 Vector   23  Occ=0.000000D+00  E= 2.821633D-01

 Vector   24  Occ=0.000000D+00  E= 3.881988D-01

 Vector   25  Occ=0.000000D+00  E= 4.631366D-01

 Vector   26  Occ=0.000000D+00  E= 4.636440D-01

 Vector   27  Occ=0.000000D+00  E= 4.636440D-01

 Vector   28  Occ=0.000000D+00  E= 7.065520D-01

     Multipole analysis of the density
     ---------------------------------

     L   x y z        total         alpha         beta         nuclear
     -   - - -        -----         -----         ----         -------
     0   0 0 0     -0.000000     -9.000000     -7.000000     16.000000

     1   1 0 0     -0.000000      0.000000     -0.000000      0.000000
     1   0 1 0     -0.000000     -0.000000      0.000000      0.000000
     1   0 0 1      0.179100      0.116691      0.062409      0.000000

     2   2 0 0    -10.669333     -7.965993     -2.703340      0.000000
     2   1 1 0     -0.000000     -0.000000     -0.000000      0.000000
     2   1 0 1      0.000000     -0.000000      0.000000      0.000000
     2   0 2 0    -10.669333     -7.965993     -2.703340      0.000000
     2   0 1 1      0.000000      0.000000      0.000000      0.000000

 Total times  cpu:       11.9s     wall:       12.5s
