 Output coordinates in angstroms (scale by  1.889725989 to convert to a.u.)

  No.       Tag          Charge          X              Y              Z
 ---- ---------------- ---------- -------------- -------------- --------------
    1 P                   15.0000    -0.08328059     0.00000000    -0.07934294
    2 H                    1.0000    -0.08328059     0.00000000     1.33808706
    3 H                    1.0000     1.33248941     0.00000000    -0.14794294

         Total DFT energy =     -342.045769681405

                       DFT Final Molecular Orbital Analysis
                       ------------------------------------

 Vector    1  Occ=2.000000D+00  E=-7.702514D+01

 Vector    2  Occ=2.000000D+00  E=-6.767840D+00

 Vector    3  Occ=2.000000D+00  E=-4.939057D+00

 Vector    4  Occ=2.000000D+00  E=-4.922733D+00

 Vector    5  Occ=2.000000D+00  E=-4.918635D+00

 Vector    6  Occ=2.000000D+00  E=-9.070349D-01

 Vector    7  Occ=2.000000D+00  E=-6.645838D-01

 Vector    8  Occ=2.000000D+00  E=-5.857422D-01

 Vector    9  Occ=0.000000D+00  E=-5.032149D-01

 Vector   10  Occ=0.000000D+00  E=-2.723036D-01

 Vector   11  Occ=0.000000D+00  E=-2.267431D-01

 Vector   12  Occ=0.000000D+00  E=-1.707048D-01

 Vector   13  Occ=0.000000D+00  E=-1.353278D-01

 Vector   14  Occ=0.000000D+00  E=-1.284652D-01

 Vector   15  Occ=0.000000D+00  E=-1.277983D-01

 Vector   16  Occ=0.000000D+00  E=-1.183213D-01

 Vector   17  Occ=0.000000D+00  E=-1.169133D-01

 Vector   18  Occ=0.000000D+00  E=-1.114710D-01

 Vector   19  Occ=0.000000D+00  E=-6.144985D-02

 Vector   20  Occ=0.000000D+00  E=-6.103106D-02

 Vector   21  Occ=0.000000D+00  E= 2.532960D-02

 Vector   22  Occ=0.000000D+00  E= 4.388226D-02

 Vector   23  Occ=0.000000D+00  E= 5.532481D-02

 Vector   24  Occ=0.000000D+00  E= 5.699055D-02

 Vector   25  Occ=0.000000D+00  E= 1.161355D-01

 Vector   26  Occ=0.000000D+00  E= 1.556276D-01

 Vector   27  Occ=0.000000D+00  E= 1.990692D-01

 Vector   28  Occ=0.000000D+00  E= 2.019654D-01

 Vector   29  Occ=0.000000D+00  E= 2.062794D-01

 Vector   30  Occ=0.000000D+00  E= 2.448347D-01

 Vector   31  Occ=0.000000D+00  E= 2.863281D-01

 Vector   32  Occ=0.000000D+00  E= 2.881664D-01

 Vector   33  Occ=0.000000D+00  E= 4.674990D-01

 Vector   34  Occ=0.000000D+00  E= 5.050704D-01

     Multipole analysis of the density
     ---------------------------------

     L   x y z        total         alpha         beta         nuclear
     -   - - -        -----         -----         ----         -------
     0   0 0 0      1.000000     -8.000000     -8.000000     17.000000

     1   1 0 0      0.241001      0.120500      0.120500      0.000000
     1   0 1 0     -0.000000     -0.000000     -0.000000      0.000000
     1   0 0 1      0.229606      0.114803      0.114803      0.000000

     2   2 0 0     -7.987319     -7.362063     -7.362063      6.736808
     2   1 1 0      0.000000      0.000000      0.000000      0.000000
     2   1 0 1     -0.549433      0.099269      0.099269     -0.747971
     2   0 2 0     -6.777529     -3.388765     -3.388765      0.000000
     2   0 1 1      0.000000      0.000000      0.000000      0.000000

 Total times  cpu:       13.8s     wall:       14.5s
