 Output coordinates in angstroms (scale by  1.889725989 to convert to a.u.)

  No.       Tag          Charge          X              Y              Z
 ---- ---------------- ---------- -------------- -------------- --------------
    1 P                   15.0000     0.00000000     0.00000000    -0.11565765
    2 H                    1.0000     1.02013000     0.00000000     0.86743235
    3 H                    1.0000    -1.02013000     0.00000000     0.86743235

         Total DFT energy =     -342.411669350703

                    DFT Final Alpha Molecular Orbital Analysis
                    ------------------------------------------

 Vector    1  Occ=1.000000D+00  E=-7.664441D+01

 Vector    2  Occ=1.000000D+00  E=-6.394100D+00

 Vector    3  Occ=1.000000D+00  E=-4.558397D+00

 Vector    4  Occ=1.000000D+00  E=-4.553025D+00

 Vector    5  Occ=1.000000D+00  E=-4.549297D+00

 Vector    6  Occ=1.000000D+00  E=-5.959029D-01

 Vector    7  Occ=1.000000D+00  E=-3.627160D-01

 Vector    8  Occ=1.000000D+00  E=-2.862739D-01

 Vector    9  Occ=1.000000D+00  E=-2.290050D-01

 Vector   10  Occ=0.000000D+00  E=-2.017940D-02

 Vector   11  Occ=0.000000D+00  E=-1.040727D-02

 Vector   12  Occ=0.000000D+00  E= 2.318838D-02

 Vector   13  Occ=0.000000D+00  E= 2.921697D-02

 Vector   14  Occ=0.000000D+00  E= 3.079354D-02

 Vector   15  Occ=0.000000D+00  E= 4.469272D-02

 Vector   16  Occ=0.000000D+00  E= 8.242996D-02

 Vector   17  Occ=0.000000D+00  E= 9.180982D-02

 Vector   18  Occ=0.000000D+00  E= 1.394220D-01

 Vector   19  Occ=0.000000D+00  E= 1.401393D-01

 Vector   20  Occ=0.000000D+00  E= 1.451042D-01

 Vector   21  Occ=0.000000D+00  E= 2.281553D-01

 Vector   22  Occ=0.000000D+00  E= 2.377535D-01

 Vector   23  Occ=0.000000D+00  E= 2.458418D-01

 Vector   24  Occ=0.000000D+00  E= 2.537366D-01

 Vector   25  Occ=0.000000D+00  E= 3.153698D-01

 Vector   26  Occ=0.000000D+00  E= 3.879397D-01

 Vector   27  Occ=0.000000D+00  E= 4.013656D-01

 Vector   28  Occ=0.000000D+00  E= 4.238497D-01

 Vector   29  Occ=0.000000D+00  E= 4.387949D-01

 Vector   30  Occ=0.000000D+00  E= 4.734453D-01

 Vector   31  Occ=0.000000D+00  E= 5.155888D-01

 Vector    1  Occ=1.000000D+00  E=-7.664072D+01

 Vector    2  Occ=1.000000D+00  E=-6.390512D+00

 Vector    3  Occ=1.000000D+00  E=-4.550257D+00

 Vector    4  Occ=1.000000D+00  E=-4.547011D+00

 Vector    5  Occ=1.000000D+00  E=-4.546711D+00

 Vector    6  Occ=1.000000D+00  E=-5.688944D-01

 Vector    7  Occ=1.000000D+00  E=-3.584270D-01

 Vector    8  Occ=1.000000D+00  E=-2.731753D-01

 Vector    9  Occ=0.000000D+00  E=-1.483275D-01

 Vector   10  Occ=0.000000D+00  E=-1.319269D-02

 Vector   11  Occ=0.000000D+00  E=-3.486778D-03

 Vector   12  Occ=0.000000D+00  E= 2.656220D-02

 Vector   13  Occ=0.000000D+00  E= 3.223696D-02

 Vector   14  Occ=0.000000D+00  E= 4.831750D-02

 Vector   15  Occ=0.000000D+00  E= 7.008738D-02

 Vector   16  Occ=0.000000D+00  E= 8.618247D-02

 Vector   17  Occ=0.000000D+00  E= 1.066430D-01

 Vector   18  Occ=0.000000D+00  E= 1.468044D-01

 Vector   19  Occ=0.000000D+00  E= 1.710981D-01

 Vector   20  Occ=0.000000D+00  E= 1.753097D-01

 Vector   21  Occ=0.000000D+00  E= 2.423924D-01

 Vector   22  Occ=0.000000D+00  E= 2.502500D-01

 Vector   23  Occ=0.000000D+00  E= 2.580540D-01

 Vector   24  Occ=0.000000D+00  E= 2.772680D-01

 Vector   25  Occ=0.000000D+00  E= 3.182650D-01

 Vector   26  Occ=0.000000D+00  E= 3.950545D-01

 Vector   27  Occ=0.000000D+00  E= 4.155638D-01

 Vector   28  Occ=0.000000D+00  E= 4.266136D-01

 Vector   29  Occ=0.000000D+00  E= 4.471462D-01

 Vector   30  Occ=0.000000D+00  E= 4.863736D-01

 Vector   31  Occ=0.000000D+00  E= 5.257129D-01

     Multipole analysis of the density
     ---------------------------------

     L   x y z        total         alpha         beta         nuclear
     -   - - -        -----         -----         ----         -------
     0   0 0 0      0.000000     -9.000000     -8.000000     17.000000

     1   1 0 0     -0.000000     -0.000000     -0.000000      0.000000
     1   0 1 0     -0.000000     -0.000000      0.000000      0.000000
     1   0 0 1      0.226167      0.146703      0.079464      0.000000

     2   2 0 0    -10.443108     -9.501784     -8.373889      7.432565
     2   1 1 0     -0.000000      0.000000     -0.000000      0.000000
     2   1 0 1      0.000000      0.000000      0.000000      0.000000
     2   0 2 0    -11.246974     -7.704036     -3.542938      0.000000
     2   0 1 1     -0.000000      0.000000     -0.000000      0.000000

 Total times  cpu:       27.8s     wall:       28.4s
