 Output coordinates in angstroms (scale by  1.889725989 to convert to a.u.)

  No.       Tag          Charge          X              Y              Z
 ---- ---------------- ---------- -------------- -------------- --------------
    1 S                   16.0000     0.00000000     0.00000000     0.00000000

         Total DFT energy =     -397.603954468620

                    DFT Final Alpha Molecular Orbital Analysis
                    ------------------------------------------

 Vector    1  Occ=1.000000D+00  E=-8.889103D+01

 Vector    2  Occ=1.000000D+00  E=-8.232329D+00

 Vector    3  Occ=1.000000D+00  E=-6.194599D+00

 Vector    4  Occ=1.000000D+00  E=-6.194599D+00

 Vector    5  Occ=1.000000D+00  E=-6.194599D+00

 Vector    6  Occ=1.000000D+00  E=-1.076417D+00

 Vector    7  Occ=1.000000D+00  E=-6.661921D-01

 Vector    8  Occ=1.000000D+00  E=-6.661921D-01

 Vector    9  Occ=1.000000D+00  E=-6.661921D-01

 Vector   10  Occ=0.000000D+00  E=-1.985700D-01

 Vector   11  Occ=0.000000D+00  E=-1.395070D-01

 Vector   12  Occ=0.000000D+00  E=-1.395070D-01

 Vector   13  Occ=0.000000D+00  E=-1.395070D-01

 Vector   14  Occ=0.000000D+00  E=-1.395070D-01

 Vector   15  Occ=0.000000D+00  E=-1.395070D-01

 Vector   16  Occ=0.000000D+00  E=-1.306464D-01

 Vector   17  Occ=0.000000D+00  E=-1.306464D-01

 Vector   18  Occ=0.000000D+00  E=-1.306464D-01

 Vector   19  Occ=0.000000D+00  E= 7.066390D-02

 Vector   20  Occ=0.000000D+00  E= 7.066390D-02

 Vector   21  Occ=0.000000D+00  E= 7.066390D-02

 Vector   22  Occ=0.000000D+00  E= 9.063600D-02

 Vector   23  Occ=0.000000D+00  E= 5.451588D-01

 Vector    1  Occ=1.000000D+00  E=-8.887506D+01

 Vector    2  Occ=1.000000D+00  E=-8.218504D+00

 Vector    3  Occ=1.000000D+00  E=-6.171909D+00

 Vector    4  Occ=1.000000D+00  E=-6.171909D+00

 Vector    5  Occ=1.000000D+00  E=-6.171909D+00

 Vector    6  Occ=1.000000D+00  E=-9.287160D-01

 Vector    7  Occ=0.000000D+00  E=-5.322953D-01

 Vector    8  Occ=0.000000D+00  E=-5.322953D-01

 Vector    9  Occ=0.000000D+00  E=-5.322953D-01

 Vector   10  Occ=0.000000D+00  E=-1.610129D-01

 Vector   11  Occ=0.000000D+00  E=-9.767357D-02

 Vector   12  Occ=0.000000D+00  E=-9.767357D-02

 Vector   13  Occ=0.000000D+00  E=-9.767357D-02

 Vector   14  Occ=0.000000D+00  E=-5.338623D-02

 Vector   15  Occ=0.000000D+00  E=-5.338623D-02

 Vector   16  Occ=0.000000D+00  E=-5.338623D-02

 Vector   17  Occ=0.000000D+00  E=-5.338623D-02

 Vector   18  Occ=0.000000D+00  E=-5.338623D-02

 Vector   19  Occ=0.000000D+00  E= 1.031955D-01

 Vector   20  Occ=0.000000D+00  E= 1.031955D-01

 Vector   21  Occ=0.000000D+00  E= 1.031955D-01

 Vector   22  Occ=0.000000D+00  E= 1.275744D-01

 Vector   23  Occ=0.000000D+00  E= 6.408831D-01

 Total times  cpu:        5.9s     wall:        6.5s
