 Output coordinates in angstroms (scale by  1.889725989 to convert to a.u.)

  No.       Tag          Charge          X              Y              Z
 ---- ---------------- ---------- -------------- -------------- --------------
    1 S                   16.0000     0.00000000     0.00000000     0.00000000

         Total DFT energy =     -397.988334320150

                    DFT Final Alpha Molecular Orbital Analysis
                    ------------------------------------------

 Vector    1  Occ=1.000000D+00  E=-8.845683D+01

 Vector    2  Occ=1.000000D+00  E=-7.806403D+00

 Vector    3  Occ=1.000000D+00  E=-5.772525D+00

 Vector    4  Occ=1.000000D+00  E=-5.772525D+00

 Vector    5  Occ=1.000000D+00  E=-5.753231D+00

 Vector    6  Occ=1.000000D+00  E=-6.775059D-01

 Vector    7  Occ=1.000000D+00  E=-3.058016D-01

 Vector    8  Occ=1.000000D+00  E=-3.058016D-01

 Vector    9  Occ=1.000000D+00  E=-2.554019D-01

 Vector   10  Occ=0.000000D+00  E= 1.538096D-03

 Vector   11  Occ=0.000000D+00  E= 3.552395D-02

 Vector   12  Occ=0.000000D+00  E= 3.552550D-02

 Vector   13  Occ=0.000000D+00  E= 4.146485D-02

 Vector   14  Occ=0.000000D+00  E= 1.638265D-01

 Vector   15  Occ=0.000000D+00  E= 1.638268D-01

 Vector   16  Occ=0.000000D+00  E= 1.876051D-01

 Vector   17  Occ=0.000000D+00  E= 1.876051D-01

 Vector   18  Occ=0.000000D+00  E= 1.975686D-01

 Vector   19  Occ=0.000000D+00  E= 2.794400D-01

 Vector   20  Occ=0.000000D+00  E= 2.794417D-01

 Vector   21  Occ=0.000000D+00  E= 2.950785D-01

 Vector   22  Occ=0.000000D+00  E= 3.170781D-01

 Vector   23  Occ=0.000000D+00  E= 8.890677D-01

 Vector    1  Occ=1.000000D+00  E=-8.844754D+01

 Vector    2  Occ=1.000000D+00  E=-7.797921D+00

 Vector    3  Occ=1.000000D+00  E=-5.755357D+00

 Vector    4  Occ=1.000000D+00  E=-5.755357D+00

 Vector    5  Occ=1.000000D+00  E=-5.746545D+00

 Vector    6  Occ=1.000000D+00  E=-5.896568D-01

 Vector    7  Occ=1.000000D+00  E=-2.353912D-01

 Vector    8  Occ=0.000000D+00  E=-1.987812D-01

 Vector    9  Occ=0.000000D+00  E=-1.987806D-01

 Vector   10  Occ=0.000000D+00  E= 1.737170D-02

 Vector   11  Occ=0.000000D+00  E= 4.494020D-02

 Vector   12  Occ=0.000000D+00  E= 5.375621D-02

 Vector   13  Occ=0.000000D+00  E= 5.377521D-02

 Vector   14  Occ=0.000000D+00  E= 2.256760D-01

 Vector   15  Occ=0.000000D+00  E= 2.256760D-01

 Vector   16  Occ=0.000000D+00  E= 2.263903D-01

 Vector   17  Occ=0.000000D+00  E= 2.359710D-01

 Vector   18  Occ=0.000000D+00  E= 2.359728D-01

 Vector   19  Occ=0.000000D+00  E= 3.031400D-01

 Vector   20  Occ=0.000000D+00  E= 3.078618D-01

 Vector   21  Occ=0.000000D+00  E= 3.078656D-01

 Vector   22  Occ=0.000000D+00  E= 3.424975D-01

 Vector   23  Occ=0.000000D+00  E= 9.800182D-01

 Total times  cpu:        6.9s     wall:        7.4s
