 Output coordinates in angstroms (scale by  1.889725989 to convert to a.u.)

  No.       Tag          Charge          X              Y              Z
 ---- ---------------- ---------- -------------- -------------- --------------
    1 S                   16.0000     0.00000000     0.00000000    -0.91009500
    2 S                   16.0000     0.00000000     0.00000000     0.91009500

         Total DFT energy =     -795.803069973798

                    DFT Final Alpha Molecular Orbital Analysis
                    ------------------------------------------

 Vector    5  Occ=1.000000D+00  E=-6.081328D+00

 Vector    7  Occ=1.000000D+00  E=-6.077595D+00

 Vector    8  Occ=1.000000D+00  E=-6.076310D+00

 Vector    9  Occ=1.000000D+00  E=-6.075650D+00

 Vector   10  Occ=1.000000D+00  E=-6.075543D+00

 Vector   11  Occ=1.000000D+00  E=-1.096111D+00

 Vector   12  Occ=1.000000D+00  E=-8.655690D-01

 Vector   13  Occ=1.000000D+00  E=-6.555610D-01

 Vector   14  Occ=1.000000D+00  E=-6.361601D-01

 Vector   15  Occ=1.000000D+00  E=-6.330338D-01

 Vector   16  Occ=1.000000D+00  E=-4.898101D-01

 Vector   17  Occ=0.000000D+00  E=-4.768932D-01

 Vector   18  Occ=0.000000D+00  E=-2.784655D-01

 Vector   19  Occ=0.000000D+00  E=-1.972524D-01

 Vector   20  Occ=0.000000D+00  E=-1.412138D-01

 Vector   21  Occ=0.000000D+00  E=-1.388499D-01

 Vector   22  Occ=0.000000D+00  E=-1.243047D-01

 Vector   23  Occ=0.000000D+00  E=-1.237528D-01

 Vector   24  Occ=0.000000D+00  E=-1.228195D-01

 Vector   25  Occ=0.000000D+00  E=-1.193944D-01

 Vector   26  Occ=0.000000D+00  E=-8.942684D-02

 Vector   27  Occ=0.000000D+00  E=-8.929314D-02

 Vector   28  Occ=0.000000D+00  E=-7.729720D-02

 Vector   29  Occ=0.000000D+00  E=-7.722646D-02

 Vector   30  Occ=0.000000D+00  E=-2.186065D-02

 Vector   31  Occ=0.000000D+00  E= 5.702248D-03

 Vector   32  Occ=0.000000D+00  E= 1.848802D-02

 Vector   33  Occ=0.000000D+00  E= 1.962143D-02

 Vector   34  Occ=0.000000D+00  E= 7.157801D-02

 Vector   35  Occ=0.000000D+00  E= 8.588397D-02

 Vector   36  Occ=0.000000D+00  E= 8.939192D-02

 Vector   37  Occ=0.000000D+00  E= 1.144501D-01

 Vector   38  Occ=0.000000D+00  E= 1.211353D-01

 Vector   39  Occ=0.000000D+00  E= 1.225370D-01

 Vector   40  Occ=0.000000D+00  E= 2.379121D-01

 Vector   41  Occ=0.000000D+00  E= 2.379418D-01

 Vector   42  Occ=0.000000D+00  E= 2.383041D-01

 Vector   43  Occ=0.000000D+00  E= 2.458658D-01

 Vector   44  Occ=0.000000D+00  E= 4.691892D-01

 Vector   45  Occ=0.000000D+00  E= 5.684307D-01

 Vector    5  Occ=1.000000D+00  E=-6.079553D+00

 Vector    6  Occ=1.000000D+00  E=-6.079444D+00

 Vector    7  Occ=1.000000D+00  E=-6.075824D+00

 Vector    8  Occ=1.000000D+00  E=-6.074535D+00

 Vector    9  Occ=1.000000D+00  E=-6.067438D+00

 Vector   10  Occ=1.000000D+00  E=-6.067330D+00

 Vector   11  Occ=1.000000D+00  E=-1.084767D+00

 Vector   12  Occ=1.000000D+00  E=-8.400934D-01

 Vector   13  Occ=1.000000D+00  E=-6.446826D-01

 Vector   14  Occ=1.000000D+00  E=-6.277570D-01

 Vector   15  Occ=1.000000D+00  E=-6.004341D-01

 Vector   16  Occ=0.000000D+00  E=-4.686656D-01

 Vector   17  Occ=0.000000D+00  E=-4.356555D-01

 Vector   18  Occ=0.000000D+00  E=-2.695845D-01

 Vector   19  Occ=0.000000D+00  E=-1.928239D-01

 Vector   20  Occ=0.000000D+00  E=-1.389295D-01

 Vector   21  Occ=0.000000D+00  E=-1.298265D-01

 Vector   22  Occ=0.000000D+00  E=-1.198894D-01

 Vector   23  Occ=0.000000D+00  E=-1.144772D-01

 Vector   24  Occ=0.000000D+00  E=-1.070725D-01

 Vector   25  Occ=0.000000D+00  E=-1.051585D-01

 Vector   26  Occ=0.000000D+00  E=-8.696839D-02

 Vector   27  Occ=0.000000D+00  E=-7.452401D-02

 Vector   28  Occ=0.000000D+00  E=-6.910112D-02

 Vector   29  Occ=0.000000D+00  E=-6.779049D-02

 Vector   30  Occ=0.000000D+00  E=-1.785133D-02

 Vector   31  Occ=0.000000D+00  E= 1.111186D-02

 Vector   32  Occ=0.000000D+00  E= 4.149344D-02

 Vector   33  Occ=0.000000D+00  E= 4.172834D-02

 Vector   34  Occ=0.000000D+00  E= 7.522496D-02

 Vector   35  Occ=0.000000D+00  E= 8.807482D-02

 Vector   36  Occ=0.000000D+00  E= 9.866390D-02

 Vector   37  Occ=0.000000D+00  E= 1.193260D-01

 Vector   38  Occ=0.000000D+00  E= 1.243851D-01

 Vector   39  Occ=0.000000D+00  E= 1.350173D-01

 Vector   40  Occ=0.000000D+00  E= 2.412788D-01

 Vector   41  Occ=0.000000D+00  E= 2.444432D-01

 Vector   42  Occ=0.000000D+00  E= 2.551490D-01

 Vector   43  Occ=0.000000D+00  E= 2.578846D-01

 Vector   44  Occ=0.000000D+00  E= 4.753934D-01

 Vector   45  Occ=0.000000D+00  E= 5.763037D-01

     Multipole analysis of the density
     ---------------------------------

     L   x y z        total         alpha         beta         nuclear
     -   - - -        -----         -----         ----         -------
     0   0 0 0      1.000000    -16.000000    -15.000000     32.000000

     1   1 0 0      0.000000      0.000000      0.000000      0.000000
     1   0 1 0     -0.000000      0.000000     -0.000000      0.000000
     1   0 0 1     -0.000001     -0.000000     -0.000000      0.000000

     2   2 0 0    -15.209505     -8.060098     -7.149407      0.000000
     2   1 1 0      0.457382      0.512637     -0.055256      0.000000
     2   1 0 1      0.000000      0.000000      0.000000      0.000000
     2   0 2 0    -16.475986     -9.479580     -6.996405      0.000000
     2   0 1 1     -0.000000      0.000000     -0.000000      0.000000

 Total times  cpu:       41.6s     wall:       42.6s
