 Output coordinates in angstroms (scale by  1.889725989 to convert to a.u.)

  No.       Tag          Charge          X              Y              Z
 ---- ---------------- ---------- -------------- -------------- --------------
    1 S                   16.0000     0.00000000     0.00000000    -0.94629500
    2 S                   16.0000     0.00000000     0.00000000     0.94629500

         Total DFT energy =     -796.149925704217

                    DFT Final Alpha Molecular Orbital Analysis
                    ------------------------------------------

 Vector    5  Occ=1.000000D+00  E=-5.761338D+00

 Vector    6  Occ=1.000000D+00  E=-5.760535D+00

 Vector    7  Occ=1.000000D+00  E=-5.760046D+00

 Vector    8  Occ=1.000000D+00  E=-5.760046D+00

 Vector    9  Occ=1.000000D+00  E=-5.759980D+00

 Vector   10  Occ=1.000000D+00  E=-5.759980D+00

 Vector   11  Occ=1.000000D+00  E=-7.858708D-01

 Vector   12  Occ=1.000000D+00  E=-5.900721D-01

 Vector   13  Occ=1.000000D+00  E=-3.709285D-01

 Vector   14  Occ=1.000000D+00  E=-3.482416D-01

 Vector   15  Occ=1.000000D+00  E=-3.482416D-01

 Vector   16  Occ=1.000000D+00  E=-2.205757D-01

 Vector   17  Occ=1.000000D+00  E=-2.205757D-01

 Vector   18  Occ=0.000000D+00  E=-4.311288D-02

 Vector   19  Occ=0.000000D+00  E=-3.169376D-03

 Vector   20  Occ=0.000000D+00  E= 2.673125D-02

 Vector   21  Occ=0.000000D+00  E= 2.673125D-02

 Vector   22  Occ=0.000000D+00  E= 3.569054D-02

 Vector   23  Occ=0.000000D+00  E= 4.012467D-02

 Vector   24  Occ=0.000000D+00  E= 6.227072D-02

 Vector   25  Occ=0.000000D+00  E= 6.227072D-02

 Vector   26  Occ=0.000000D+00  E= 1.209631D-01

 Vector   27  Occ=0.000000D+00  E= 1.288476D-01

 Vector   28  Occ=0.000000D+00  E= 1.288476D-01

 Vector   29  Occ=0.000000D+00  E= 1.523634D-01

 Vector   30  Occ=0.000000D+00  E= 1.523634D-01

 Vector   31  Occ=0.000000D+00  E= 1.988828D-01

 Vector   32  Occ=0.000000D+00  E= 2.386187D-01

 Vector   33  Occ=0.000000D+00  E= 2.563272D-01

 Vector   34  Occ=0.000000D+00  E= 2.563273D-01

 Vector   35  Occ=0.000000D+00  E= 2.796947D-01

 Vector   36  Occ=0.000000D+00  E= 2.796947D-01

 Vector   37  Occ=0.000000D+00  E= 3.023494D-01

 Vector   38  Occ=0.000000D+00  E= 3.057482D-01

 Vector   39  Occ=0.000000D+00  E= 3.057482D-01

 Vector   40  Occ=0.000000D+00  E= 4.376877D-01

 Vector   41  Occ=0.000000D+00  E= 4.578059D-01

 Vector   42  Occ=0.000000D+00  E= 4.591457D-01

 Vector   43  Occ=0.000000D+00  E= 4.591457D-01

 Vector   44  Occ=0.000000D+00  E= 6.604224D-01

 Vector    5  Occ=1.000000D+00  E=-5.758065D+00

 Vector    6  Occ=1.000000D+00  E=-5.757257D+00

 Vector    7  Occ=1.000000D+00  E=-5.750816D+00

 Vector    8  Occ=1.000000D+00  E=-5.750816D+00

 Vector    9  Occ=1.000000D+00  E=-5.750750D+00

 Vector   10  Occ=1.000000D+00  E=-5.750750D+00

 Vector   11  Occ=1.000000D+00  E=-7.625420D-01

 Vector   12  Occ=1.000000D+00  E=-5.425614D-01

 Vector   13  Occ=1.000000D+00  E=-3.513258D-01

 Vector   14  Occ=1.000000D+00  E=-3.095295D-01

 Vector   15  Occ=1.000000D+00  E=-3.095295D-01

 Vector   16  Occ=0.000000D+00  E=-1.644652D-01

 Vector   17  Occ=0.000000D+00  E=-1.644652D-01

 Vector   18  Occ=0.000000D+00  E=-2.755729D-02

 Vector   19  Occ=0.000000D+00  E= 4.802894D-03

 Vector   20  Occ=0.000000D+00  E= 3.374189D-02

 Vector   21  Occ=0.000000D+00  E= 3.374189D-02

 Vector   22  Occ=0.000000D+00  E= 4.518535D-02

 Vector   23  Occ=0.000000D+00  E= 4.698696D-02

 Vector   24  Occ=0.000000D+00  E= 7.295144D-02

 Vector   25  Occ=0.000000D+00  E= 7.295144D-02

 Vector   26  Occ=0.000000D+00  E= 1.290158D-01

 Vector   27  Occ=0.000000D+00  E= 1.587411D-01

 Vector   28  Occ=0.000000D+00  E= 1.587412D-01

 Vector   29  Occ=0.000000D+00  E= 1.742581D-01

 Vector   30  Occ=0.000000D+00  E= 1.742581D-01

 Vector   31  Occ=0.000000D+00  E= 2.112425D-01

 Vector   32  Occ=0.000000D+00  E= 2.459342D-01

 Vector   33  Occ=0.000000D+00  E= 2.932247D-01

 Vector   34  Occ=0.000000D+00  E= 2.932247D-01

 Vector   35  Occ=0.000000D+00  E= 2.974587D-01

 Vector   36  Occ=0.000000D+00  E= 2.974587D-01

 Vector   37  Occ=0.000000D+00  E= 3.129778D-01

 Vector   38  Occ=0.000000D+00  E= 3.224024D-01

 Vector   39  Occ=0.000000D+00  E= 3.224024D-01

 Vector   40  Occ=0.000000D+00  E= 4.571707D-01

 Vector   41  Occ=0.000000D+00  E= 4.708646D-01

 Vector   42  Occ=0.000000D+00  E= 4.816362D-01

 Vector   43  Occ=0.000000D+00  E= 4.816362D-01

 Vector   44  Occ=0.000000D+00  E= 6.721736D-01

     Multipole analysis of the density
     ---------------------------------

     L   x y z        total         alpha         beta         nuclear
     -   - - -        -----         -----         ----         -------
     0   0 0 0     -0.000000    -17.000000    -15.000000     32.000000

     1   1 0 0      0.000000      0.000000      0.000000      0.000000
     1   0 1 0      0.000000      0.000000     -0.000000      0.000000
     1   0 0 1     -0.000154     -0.000037     -0.000117      0.000000

     2   2 0 0    -19.253720    -11.513832     -7.739888      0.000000
     2   1 1 0      0.000000      0.000000      0.000000      0.000000
     2   1 0 1      0.000000     -0.000000      0.000000      0.000000
     2   0 2 0    -19.253720    -11.513832     -7.739888      0.000000
     2   0 1 1     -0.000000      0.000000     -0.000000      0.000000

 Total times  cpu:       28.9s     wall:       29.8s
