 Output coordinates in angstroms (scale by  1.889725989 to convert to a.u.)

  No.       Tag          Charge          X              Y              Z
 ---- ---------------- ---------- -------------- -------------- --------------
    1 S                   16.0000     0.00000000     0.00000000    -0.08007412
    2 H                    1.0000     0.00000000     0.00000000     1.28118588

         Total DFT energy =     -398.250965463185

                    DFT Final Alpha Molecular Orbital Analysis
                    ------------------------------------------

 Vector    1  Occ=1.000000D+00  E=-8.884669D+01

 Vector    2  Occ=1.000000D+00  E=-8.191932D+00

 Vector    3  Occ=1.000000D+00  E=-6.155911D+00

 Vector    4  Occ=1.000000D+00  E=-6.155910D+00

 Vector    5  Occ=1.000000D+00  E=-6.144826D+00

 Vector    6  Occ=1.000000D+00  E=-1.067736D+00

 Vector    7  Occ=1.000000D+00  E=-7.223916D-01

 Vector    8  Occ=1.000000D+00  E=-6.434623D-01

 Vector    9  Occ=1.000000D+00  E=-6.434623D-01

 Vector   10  Occ=0.000000D+00  E=-3.067251D-01

 Vector   11  Occ=0.000000D+00  E=-1.936106D-01

 Vector   12  Occ=0.000000D+00  E=-1.390961D-01

 Vector   13  Occ=0.000000D+00  E=-1.390961D-01

 Vector   14  Occ=0.000000D+00  E=-1.355342D-01

 Vector   15  Occ=0.000000D+00  E=-1.263779D-01

 Vector   16  Occ=0.000000D+00  E=-1.263778D-01

 Vector   17  Occ=0.000000D+00  E=-1.253386D-01

 Vector   18  Occ=0.000000D+00  E=-1.253379D-01

 Vector   19  Occ=0.000000D+00  E=-6.574461D-02

 Vector   20  Occ=0.000000D+00  E= 3.184563D-02

 Vector   21  Occ=0.000000D+00  E= 7.169891D-02

 Vector   22  Occ=0.000000D+00  E= 7.463856D-02

 Vector   23  Occ=0.000000D+00  E= 7.463866D-02

 Vector   24  Occ=0.000000D+00  E= 1.902119D-01

 Vector   25  Occ=0.000000D+00  E= 2.134202D-01

 Vector   26  Occ=0.000000D+00  E= 2.147977D-01

 Vector   27  Occ=0.000000D+00  E= 2.147977D-01

 Vector   28  Occ=0.000000D+00  E= 5.034341D-01

 Vector    1  Occ=1.000000D+00  E=-8.883618D+01

 Vector    2  Occ=1.000000D+00  E=-8.182477D+00

 Vector    3  Occ=1.000000D+00  E=-6.137422D+00

 Vector    4  Occ=1.000000D+00  E=-6.136735D+00

 Vector    5  Occ=1.000000D+00  E=-6.136735D+00

 Vector    6  Occ=1.000000D+00  E=-9.859206D-01

 Vector    7  Occ=1.000000D+00  E=-7.000784D-01

 Vector    8  Occ=0.000000D+00  E=-5.221882D-01

 Vector    9  Occ=0.000000D+00  E=-5.221880D-01

 Vector   10  Occ=0.000000D+00  E=-2.664472D-01

 Vector   11  Occ=0.000000D+00  E=-1.710712D-01

 Vector   12  Occ=0.000000D+00  E=-1.266391D-01

 Vector   13  Occ=0.000000D+00  E=-1.090364D-01

 Vector   14  Occ=0.000000D+00  E=-1.090364D-01

 Vector   15  Occ=0.000000D+00  E=-8.734041D-02

 Vector   16  Occ=0.000000D+00  E=-8.734038D-02

 Vector   17  Occ=0.000000D+00  E=-5.528209D-02

 Vector   18  Occ=0.000000D+00  E=-4.489309D-02

 Vector   19  Occ=0.000000D+00  E=-4.489270D-02

 Vector   20  Occ=0.000000D+00  E= 5.144009D-02

 Vector   21  Occ=0.000000D+00  E= 8.278212D-02

 Vector   22  Occ=0.000000D+00  E= 1.015189D-01

 Vector   23  Occ=0.000000D+00  E= 1.015190D-01

 Vector   24  Occ=0.000000D+00  E= 2.185988D-01

 Vector   25  Occ=0.000000D+00  E= 2.317430D-01

 Vector   26  Occ=0.000000D+00  E= 2.317430D-01

 Vector   27  Occ=0.000000D+00  E= 2.351808D-01

 Vector   28  Occ=0.000000D+00  E= 5.189675D-01

     Multipole analysis of the density
     ---------------------------------

     L   x y z        total         alpha         beta         nuclear
     -   - - -        -----         -----         ----         -------
     0   0 0 0      1.000000     -9.000000     -7.000000     17.000000

     1   1 0 0      0.000000     -0.000000      0.000000      0.000000
     1   0 1 0     -0.000000      0.000000     -0.000000      0.000000
     1   0 0 1      0.428702      0.269474      0.159228      0.000000

     2   2 0 0     -7.554900     -5.492946     -2.061954      0.000000
     2   1 1 0      0.000000     -0.000000      0.000000      0.000000
     2   1 0 1      0.000000     -0.000000      0.000000      0.000000
     2   0 2 0     -7.554900     -5.492946     -2.061954      0.000000
     2   0 1 1     -0.000000      0.000000     -0.000000      0.000000

 Total times  cpu:       13.2s     wall:       13.8s
