 Output coordinates in angstroms (scale by  1.889725989 to convert to a.u.)

  No.       Tag          Charge          X              Y              Z
 ---- ---------------- ---------- -------------- -------------- --------------
    1 Si                  14.0000     0.00000000     0.00000000     0.00000000

         Total DFT energy =     -288.975642827162

                    DFT Final Alpha Molecular Orbital Analysis
                    ------------------------------------------

 Vector    1  Occ=1.000000D+00  E=-6.611853D+01

 Vector    2  Occ=1.000000D+00  E=-5.516215D+00

 Vector    3  Occ=1.000000D+00  E=-3.878680D+00

 Vector    4  Occ=1.000000D+00  E=-3.878680D+00

 Vector    5  Occ=1.000000D+00  E=-3.870050D+00

 Vector    6  Occ=1.000000D+00  E=-7.187705D-01

 Vector    7  Occ=1.000000D+00  E=-4.607471D-01

 Vector    8  Occ=0.000000D+00  E=-4.280671D-01

 Vector    9  Occ=0.000000D+00  E=-4.280669D-01

 Vector   10  Occ=0.000000D+00  E=-1.634714D-01

 Vector   11  Occ=0.000000D+00  E=-1.169280D-01

 Vector   12  Occ=0.000000D+00  E=-1.169280D-01

 Vector   13  Occ=0.000000D+00  E=-1.137151D-01

 Vector   14  Occ=0.000000D+00  E=-1.104474D-01

 Vector   15  Occ=0.000000D+00  E=-1.104373D-01

 Vector   16  Occ=0.000000D+00  E=-1.103011D-01

 Vector   17  Occ=0.000000D+00  E=-1.073956D-01

 Vector   18  Occ=0.000000D+00  E=-1.073938D-01

 Vector   19  Occ=0.000000D+00  E= 5.790764D-02

 Vector   20  Occ=0.000000D+00  E= 5.979785D-02

 Vector   21  Occ=0.000000D+00  E= 5.980236D-02

 Vector   22  Occ=0.000000D+00  E= 6.209961D-02

 Vector   23  Occ=0.000000D+00  E= 4.358475D-01

 Vector   24  Occ=0.000000D+00  E= 4.358488D-01

 Vector   25  Occ=0.000000D+00  E= 4.413677D-01

 Vector   26  Occ=0.000000D+00  E= 4.413677D-01

 Vector   27  Occ=0.000000D+00  E= 4.443784D-01

 Vector   28  Occ=0.000000D+00  E= 5.127109D-01

 Vector    1  Occ=1.000000D+00  E=-6.611506D+01

 Vector    2  Occ=1.000000D+00  E=-5.513096D+00

 Vector    3  Occ=1.000000D+00  E=-3.876720D+00

 Vector    4  Occ=1.000000D+00  E=-3.876720D+00

 Vector    5  Occ=1.000000D+00  E=-3.859426D+00

 Vector    6  Occ=1.000000D+00  E=-6.780367D-01

 Vector    7  Occ=0.000000D+00  E=-4.174903D-01

 Vector    8  Occ=0.000000D+00  E=-4.174900D-01

 Vector    9  Occ=0.000000D+00  E=-3.733290D-01

 Vector   10  Occ=0.000000D+00  E=-1.484948D-01

 Vector   11  Occ=0.000000D+00  E=-1.028948D-01

 Vector   12  Occ=0.000000D+00  E=-1.028928D-01

 Vector   13  Occ=0.000000D+00  E=-1.016422D-01

 Vector   14  Occ=0.000000D+00  E=-1.016329D-01

 Vector   15  Occ=0.000000D+00  E=-8.247329D-02

 Vector   16  Occ=0.000000D+00  E=-8.127821D-02

 Vector   17  Occ=0.000000D+00  E=-8.127811D-02

 Vector   18  Occ=0.000000D+00  E=-7.811894D-02

 Vector   19  Occ=0.000000D+00  E= 6.612923D-02

 Vector   20  Occ=0.000000D+00  E= 6.613078D-02

 Vector   21  Occ=0.000000D+00  E= 6.996594D-02

 Vector   22  Occ=0.000000D+00  E= 8.487327D-02

 Vector   23  Occ=0.000000D+00  E= 4.389599D-01

 Vector   24  Occ=0.000000D+00  E= 4.389613D-01

 Vector   25  Occ=0.000000D+00  E= 4.711870D-01

 Vector   26  Occ=0.000000D+00  E= 4.711871D-01

 Vector   27  Occ=0.000000D+00  E= 4.823570D-01

 Vector   28  Occ=0.000000D+00  E= 5.209171D-01

 Total times  cpu:        4.1s     wall:        4.6s
