 Output coordinates in angstroms (scale by  1.889725989 to convert to a.u.)

  No.       Tag          Charge          X              Y              Z
 ---- ---------------- ---------- -------------- -------------- --------------
    1 Si                  14.0000     0.00000000     0.00000000     0.00000000

         Total DFT energy =     -289.276242157896

                    DFT Final Alpha Molecular Orbital Analysis
                    ------------------------------------------

 Vector    1  Occ=1.000000D+00  E=-6.575474D+01

 Vector    2  Occ=1.000000D+00  E=-5.159714D+00

 Vector    3  Occ=1.000000D+00  E=-3.523888D+00

 Vector    4  Occ=1.000000D+00  E=-3.517222D+00

 Vector    5  Occ=1.000000D+00  E=-3.517222D+00

 Vector    6  Occ=1.000000D+00  E=-4.255791D-01

 Vector    7  Occ=1.000000D+00  E=-1.757853D-01

 Vector    8  Occ=1.000000D+00  E=-1.757853D-01

 Vector    9  Occ=0.000000D+00  E=-1.558030D-01

 Vector   10  Occ=0.000000D+00  E= 8.283727D-04

 Vector   11  Occ=0.000000D+00  E= 3.236945D-02

 Vector   12  Occ=0.000000D+00  E= 3.327172D-02

 Vector   13  Occ=0.000000D+00  E= 3.327185D-02

 Vector   14  Occ=0.000000D+00  E= 1.190134D-01

 Vector   15  Occ=0.000000D+00  E= 1.190134D-01

 Vector   16  Occ=0.000000D+00  E= 1.220498D-01

 Vector   17  Occ=0.000000D+00  E= 1.220498D-01

 Vector   18  Occ=0.000000D+00  E= 1.283616D-01

 Vector   19  Occ=0.000000D+00  E= 2.370017D-01

 Vector   20  Occ=0.000000D+00  E= 2.385460D-01

 Vector   21  Occ=0.000000D+00  E= 2.385460D-01

 Vector   22  Occ=0.000000D+00  E= 2.400416D-01

 Vector   23  Occ=0.000000D+00  E= 7.243582D-01

 Vector    1  Occ=1.000000D+00  E=-6.574935D+01

 Vector    2  Occ=1.000000D+00  E=-5.154477D+00

 Vector    3  Occ=1.000000D+00  E=-3.520595D+00

 Vector    4  Occ=1.000000D+00  E=-3.506769D+00

 Vector    5  Occ=1.000000D+00  E=-3.506769D+00

 Vector    6  Occ=1.000000D+00  E=-3.561560D-01

 Vector    7  Occ=0.000000D+00  E=-1.333470D-01

 Vector    8  Occ=0.000000D+00  E=-9.714681D-02

 Vector    9  Occ=0.000000D+00  E=-9.714680D-02

 Vector   10  Occ=0.000000D+00  E= 2.660486D-02

 Vector   11  Occ=0.000000D+00  E= 5.148234D-02

 Vector   12  Occ=0.000000D+00  E= 7.097348D-02

 Vector   13  Occ=0.000000D+00  E= 7.097357D-02

 Vector   14  Occ=0.000000D+00  E= 1.492002D-01

 Vector   15  Occ=0.000000D+00  E= 1.575867D-01

 Vector   16  Occ=0.000000D+00  E= 1.575868D-01

 Vector   17  Occ=0.000000D+00  E= 1.701499D-01

 Vector   18  Occ=0.000000D+00  E= 1.701499D-01

 Vector   19  Occ=0.000000D+00  E= 2.504272D-01

 Vector   20  Occ=0.000000D+00  E= 2.655404D-01

 Vector   21  Occ=0.000000D+00  E= 2.680533D-01

 Vector   22  Occ=0.000000D+00  E= 2.680533D-01

 Vector   23  Occ=0.000000D+00  E= 7.504709D-01

 Total times  cpu:        5.5s     wall:        6.1s
