 Output coordinates in angstroms (scale by  1.889725989 to convert to a.u.)

  No.       Tag          Charge          X              Y              Z
 ---- ---------------- ---------- -------------- -------------- --------------
    1 C                    6.0000    -0.00000000    -0.00000000     0.21494736
    2 C                    6.0000    -0.00000000    -0.00000000     1.43313036
    3 C                    6.0000     0.00000000     0.00000000    -1.24647564
    4 H                    1.0000     0.00000000     0.00000000     2.49888736
    5 H                    1.0000     0.72205823     0.72205823    -1.63616664
    6 H                    1.0000     0.26429165    -0.98634988    -1.63616664
    7 H                    1.0000    -0.98634988     0.26429165    -1.63616664

         Total DFT energy =     -116.678475662637

                       DFT Final Molecular Orbital Analysis
                       ------------------------------------

 Vector    1  Occ=2.000000D+00  E=-1.008597D+01  Symmetry=a1

 Vector    2  Occ=2.000000D+00  E=-1.007550D+01  Symmetry=a1

 Vector    3  Occ=2.000000D+00  E=-1.005884D+01  Symmetry=a1

 Vector    4  Occ=2.000000D+00  E=-7.854911D-01  Symmetry=a1

 Vector    5  Occ=2.000000D+00  E=-7.064553D-01  Symmetry=a1

 Vector    6  Occ=2.000000D+00  E=-5.427283D-01  Symmetry=a1

 Vector    7  Occ=2.000000D+00  E=-4.727131D-01  Symmetry=a1

 Vector    8  Occ=2.000000D+00  E=-4.586546D-01  Symmetry=e

 Vector    9  Occ=2.000000D+00  E=-4.586546D-01  Symmetry=e

 Vector   10  Occ=2.000000D+00  E=-3.091029D-01  Symmetry=e

 Vector   11  Occ=2.000000D+00  E=-3.091029D-01  Symmetry=e

 Vector   12  Occ=0.000000D+00  E=-6.420932D-02  Symmetry=e

 Vector   13  Occ=0.000000D+00  E=-6.420932D-02  Symmetry=e

 Vector   14  Occ=0.000000D+00  E=-3.067399D-02  Symmetry=a1

 Vector   15  Occ=0.000000D+00  E= 8.164117D-03  Symmetry=a1

 Vector   16  Occ=0.000000D+00  E= 2.136274D-02  Symmetry=a1

 Vector   17  Occ=0.000000D+00  E= 2.740424D-02  Symmetry=e

 Vector   18  Occ=0.000000D+00  E= 2.740424D-02  Symmetry=e

 Vector   19  Occ=0.000000D+00  E= 5.616005D-02  Symmetry=e

 Vector   20  Occ=0.000000D+00  E= 5.616005D-02  Symmetry=e

 Vector   21  Occ=0.000000D+00  E= 6.912028D-02  Symmetry=a1

 Vector   22  Occ=0.000000D+00  E= 7.948500D-02  Symmetry=a1

 Vector   23  Occ=0.000000D+00  E= 8.289723D-02  Symmetry=e

 Vector   24  Occ=0.000000D+00  E= 8.289723D-02  Symmetry=e

 Vector   25  Occ=0.000000D+00  E= 1.051015D-01  Symmetry=a1

 Vector   26  Occ=0.000000D+00  E= 1.304819D-01  Symmetry=e

 Vector   27  Occ=0.000000D+00  E= 1.304819D-01  Symmetry=e

 Vector   28  Occ=0.000000D+00  E= 1.369362D-01  Symmetry=a1

 Vector   29  Occ=0.000000D+00  E= 1.470133D-01  Symmetry=e

 Vector   30  Occ=0.000000D+00  E= 1.470133D-01  Symmetry=e

 Vector   31  Occ=0.000000D+00  E= 1.711017D-01  Symmetry=a1

 Vector   32  Occ=0.000000D+00  E= 2.304666D-01  Symmetry=a1

 Vector   33  Occ=0.000000D+00  E= 2.319286D-01  Symmetry=e

 Vector   34  Occ=0.000000D+00  E= 2.319286D-01  Symmetry=e

 Vector   35  Occ=0.000000D+00  E= 2.332721D-01  Symmetry=a1

 Vector   36  Occ=0.000000D+00  E= 2.657646D-01  Symmetry=e

 Vector   37  Occ=0.000000D+00  E= 2.657646D-01  Symmetry=e

 Vector   38  Occ=0.000000D+00  E= 3.019041D-01  Symmetry=e

 Vector   39  Occ=0.000000D+00  E= 3.019041D-01  Symmetry=e

 Vector   40  Occ=0.000000D+00  E= 3.104077D-01  Symmetry=a1

 Vector   41  Occ=0.000000D+00  E= 3.267705D-01  Symmetry=a1

 Vector   42  Occ=0.000000D+00  E= 4.146499D-01  Symmetry=e

 Vector   43  Occ=0.000000D+00  E= 4.146499D-01  Symmetry=e

 Vector   44  Occ=0.000000D+00  E= 4.340364D-01  Symmetry=e

 Vector   45  Occ=0.000000D+00  E= 4.340364D-01  Symmetry=e

 Vector   46  Occ=0.000000D+00  E= 4.371182D-01  Symmetry=a2

 Vector   47  Occ=0.000000D+00  E= 4.404361D-01  Symmetry=a1

 Vector   48  Occ=0.000000D+00  E= 4.592316D-01  Symmetry=e

 Vector   49  Occ=0.000000D+00  E= 4.592316D-01  Symmetry=e

 Vector   50  Occ=0.000000D+00  E= 4.686614D-01  Symmetry=a1

 Vector   51  Occ=0.000000D+00  E= 4.779587D-01  Symmetry=e

 Vector   52  Occ=0.000000D+00  E= 4.779587D-01  Symmetry=e

 Vector   53  Occ=0.000000D+00  E= 5.224373D-01  Symmetry=a1

     Multipole analysis of the density
     ---------------------------------

     L   x y z        total         alpha         beta         nuclear
     -   - - -        -----         -----         ----         -------
     0   0 0 0     -0.000000    -11.000000    -11.000000     22.000000

     1   1 0 0      0.000000      0.000000      0.000000      0.000000
     1   0 1 0      0.000000      0.000000      0.000000      0.000000
     1   0 0 1     -0.403390     -0.201695     -0.201695      0.000000

     2   2 0 0    -15.408276    -10.496896    -10.496896      5.585517
     2   1 1 0      0.000000      0.000000      0.000000     -0.000000
     2   1 0 1     -0.000000     -0.000000     -0.000000      0.000000
     2   0 2 0    -15.408276    -10.496896    -10.496896      5.585517
     2   0 1 1     -0.000000     -0.000000     -0.000000      0.000000

 Total times  cpu:       49.3s     wall:       51.9s
