 Output coordinates in angstroms (scale by  1.889725989 to convert to a.u.)

  No.       Tag          Charge          X              Y              Z
 ---- ---------------- ---------- -------------- -------------- --------------
    1 C                    6.0000     0.75741177     0.75741177     0.14762600
    2 C                    6.0000    -0.75741177    -0.75741177     0.14762600
    3 C                    6.0000    -0.75741177     0.75741177    -0.14762600
    4 C                    6.0000     0.75741177    -0.75741177    -0.14762600
    5 H                    1.0000     1.40492077     1.40492077    -0.45007700
    6 H                    1.0000     0.94958855     0.94958855     1.20752000
    7 H                    1.0000    -1.40492077    -1.40492077    -0.45007700
    8 H                    1.0000    -0.94958855    -0.94958855     1.20752000
    9 H                    1.0000    -1.40492077     1.40492077     0.45007700
   10 H                    1.0000    -0.94958855     0.94958855    -1.20752000
   11 H                    1.0000     1.40492077    -1.40492077     0.45007700
   12 H                    1.0000     0.94958855    -0.94958855    -1.20752000

         Total DFT energy =     -157.234222195167

                       DFT Final Molecular Orbital Analysis
                       ------------------------------------

 Vector    4  Occ=2.000000D+00  E=-1.005384D+01  Symmetry=b2

 Vector    5  Occ=2.000000D+00  E=-8.451893D-01  Symmetry=a1

 Vector    6  Occ=2.000000D+00  E=-6.597225D-01  Symmetry=e

 Vector    7  Occ=2.000000D+00  E=-6.597225D-01  Symmetry=e

 Vector    8  Occ=2.000000D+00  E=-5.579656D-01  Symmetry=b2

 Vector    9  Occ=2.000000D+00  E=-4.990580D-01  Symmetry=b2

 Vector   10  Occ=2.000000D+00  E=-4.961410D-01  Symmetry=a1

 Vector   11  Occ=2.000000D+00  E=-3.992289D-01  Symmetry=e

 Vector   12  Occ=2.000000D+00  E=-3.992289D-01  Symmetry=e

 Vector   13  Occ=2.000000D+00  E=-3.858014D-01  Symmetry=b1

 Vector   14  Occ=2.000000D+00  E=-3.274886D-01  Symmetry=a1

 Vector   15  Occ=2.000000D+00  E=-3.270622D-01  Symmetry=e

 Vector   16  Occ=2.000000D+00  E=-3.270622D-01  Symmetry=e

 Vector   17  Occ=0.000000D+00  E=-3.574391D-02  Symmetry=a1

 Vector   18  Occ=0.000000D+00  E=-1.662197D-02  Symmetry=b2

 Vector   19  Occ=0.000000D+00  E=-1.311091D-02  Symmetry=e

 Vector   20  Occ=0.000000D+00  E=-1.311091D-02  Symmetry=e

 Vector   21  Occ=0.000000D+00  E= 2.364079D-02  Symmetry=a1

 Vector   22  Occ=0.000000D+00  E= 2.906711D-02  Symmetry=b2

 Vector   23  Occ=0.000000D+00  E= 4.347470D-02  Symmetry=e

 Vector   24  Occ=0.000000D+00  E= 4.347470D-02  Symmetry=e

 Vector   25  Occ=0.000000D+00  E= 4.933049D-02  Symmetry=e

 Vector   26  Occ=0.000000D+00  E= 4.933049D-02  Symmetry=e

 Vector   27  Occ=0.000000D+00  E= 5.912052D-02  Symmetry=b1

 Vector   28  Occ=0.000000D+00  E= 7.044777D-02  Symmetry=a1

 Vector   29  Occ=0.000000D+00  E= 7.354489D-02  Symmetry=b2

 Vector   30  Occ=0.000000D+00  E= 8.207962D-02  Symmetry=e

 Vector   31  Occ=0.000000D+00  E= 8.207962D-02  Symmetry=e

 Vector   32  Occ=0.000000D+00  E= 8.597080D-02  Symmetry=a2

 Vector   33  Occ=0.000000D+00  E= 1.008270D-01  Symmetry=b2

 Vector   34  Occ=0.000000D+00  E= 1.080747D-01  Symmetry=a1

 Vector   35  Occ=0.000000D+00  E= 1.178255D-01  Symmetry=e

 Vector   36  Occ=0.000000D+00  E= 1.178255D-01  Symmetry=e

 Vector   37  Occ=0.000000D+00  E= 1.290441D-01  Symmetry=b2

 Vector   38  Occ=0.000000D+00  E= 1.386375D-01  Symmetry=e

 Vector   39  Occ=0.000000D+00  E= 1.386375D-01  Symmetry=e

 Vector   40  Occ=0.000000D+00  E= 1.400169D-01  Symmetry=a1

 Vector   41  Occ=0.000000D+00  E= 1.580993D-01  Symmetry=e

 Vector   42  Occ=0.000000D+00  E= 1.580993D-01  Symmetry=e

 Vector   43  Occ=0.000000D+00  E= 1.730186D-01  Symmetry=b2

 Vector   44  Occ=0.000000D+00  E= 1.763825D-01  Symmetry=a2

 Vector   45  Occ=0.000000D+00  E= 1.803159D-01  Symmetry=a1

 Vector   46  Occ=0.000000D+00  E= 1.976331D-01  Symmetry=e

 Vector   47  Occ=0.000000D+00  E= 1.976331D-01  Symmetry=e

 Vector   48  Occ=0.000000D+00  E= 2.226169D-01  Symmetry=a2

 Vector   49  Occ=0.000000D+00  E= 2.429961D-01  Symmetry=b2

 Vector   50  Occ=0.000000D+00  E= 2.505040D-01  Symmetry=e

 Vector   51  Occ=0.000000D+00  E= 2.505040D-01  Symmetry=e

 Vector   52  Occ=0.000000D+00  E= 2.595637D-01  Symmetry=a1

 Vector   53  Occ=0.000000D+00  E= 2.840059D-01  Symmetry=a1

 Vector   54  Occ=0.000000D+00  E= 2.930554D-01  Symmetry=b1

 Vector   55  Occ=0.000000D+00  E= 2.938754D-01  Symmetry=e

 Vector   56  Occ=0.000000D+00  E= 2.938754D-01  Symmetry=e

 Vector   57  Occ=0.000000D+00  E= 3.188787D-01  Symmetry=b2

 Vector   58  Occ=0.000000D+00  E= 3.529540D-01  Symmetry=a1

 Vector   59  Occ=0.000000D+00  E= 3.590398D-01  Symmetry=e

 Vector   60  Occ=0.000000D+00  E= 3.590398D-01  Symmetry=e

 Vector   61  Occ=0.000000D+00  E= 4.078860D-01  Symmetry=b1

 Vector   62  Occ=0.000000D+00  E= 4.122826D-01  Symmetry=a1

 Vector   63  Occ=0.000000D+00  E= 4.216308D-01  Symmetry=b2

 Vector   64  Occ=0.000000D+00  E= 4.299700D-01  Symmetry=e

 Vector   65  Occ=0.000000D+00  E= 4.299700D-01  Symmetry=e

 Vector   66  Occ=0.000000D+00  E= 4.410296D-01  Symmetry=b2

 Vector   67  Occ=0.000000D+00  E= 4.511349D-01  Symmetry=a1

 Vector   68  Occ=0.000000D+00  E= 4.597766D-01  Symmetry=e

 Vector   69  Occ=0.000000D+00  E= 4.597766D-01  Symmetry=e

 Vector   70  Occ=0.000000D+00  E= 4.859285D-01  Symmetry=e

 Vector   71  Occ=0.000000D+00  E= 4.859285D-01  Symmetry=e

 Vector   72  Occ=0.000000D+00  E= 5.040880D-01  Symmetry=a2

     Multipole analysis of the density
     ---------------------------------

     L   x y z        total         alpha         beta         nuclear
     -   - - -        -----         -----         ----         -------
     0   0 0 0      0.000000    -16.000000    -16.000000     32.000000

     1   1 0 0     -0.000000     -0.000000     -0.000000      0.000000
     1   0 1 0      0.000000      0.000000      0.000000     -0.000000
     1   0 0 1     -0.000000     -0.000000     -0.000000      0.000000

     2   2 0 0    -21.251923    -55.746761    -55.746761     90.241600
     2   1 1 0      0.000000      0.000000      0.000000      0.000000
     2   1 0 1      0.000000      0.000000      0.000000      0.000000
     2   0 2 0    -21.251923    -55.746761    -55.746761     90.241600
     2   0 1 1     -0.000000     -0.000000     -0.000000      0.000000

 Total times  cpu:      111.8s     wall:      120.5s
