 Output coordinates in angstroms (scale by  1.889725989 to convert to a.u.)

  No.       Tag          Charge          X              Y              Z
 ---- ---------------- ---------- -------------- -------------- --------------
    1 C                    6.0000    -0.40499927     0.63887552     0.00000000
    2 C                    6.0000     0.40499927    -0.63887552     0.00000000
    3 O                    8.0000     0.13934710     1.73399918     0.00000000
    4 H                    1.0000    -1.50212664     0.50194492     0.00000000
    5 O                    8.0000    -0.13934710    -1.73399918     0.00000000
    6 H                    1.0000     1.50212664    -0.50194492     0.00000000

         Total DFT energy =     -227.914963706932

                       DFT Final Molecular Orbital Analysis
                       ------------------------------------

 Vector    4  Occ=2.000000D+00  E=-1.018113D+01  Symmetry=bu

 Vector    5  Occ=2.000000D+00  E=-1.085884D+00  Symmetry=ag

 Vector    6  Occ=2.000000D+00  E=-1.071813D+00  Symmetry=bu

 Vector    7  Occ=2.000000D+00  E=-7.307928D-01  Symmetry=ag

 Vector    8  Occ=2.000000D+00  E=-6.244000D-01  Symmetry=bu

 Vector    9  Occ=2.000000D+00  E=-5.275406D-01  Symmetry=ag

 Vector   10  Occ=2.000000D+00  E=-5.209347D-01  Symmetry=bu

 Vector   11  Occ=2.000000D+00  E=-5.016648D-01  Symmetry=au

 Vector   12  Occ=2.000000D+00  E=-4.824625D-01  Symmetry=ag

 Vector   13  Occ=2.000000D+00  E=-4.502028D-01  Symmetry=bg

 Vector   14  Occ=2.000000D+00  E=-3.626127D-01  Symmetry=bu

 Vector   15  Occ=2.000000D+00  E=-3.058774D-01  Symmetry=ag

 Vector   16  Occ=0.000000D+00  E=-2.418656D-01  Symmetry=au

 Vector   17  Occ=0.000000D+00  E=-1.161522D-01  Symmetry=bg

 Vector   18  Occ=0.000000D+00  E=-1.495994D-02  Symmetry=bu

 Vector   19  Occ=0.000000D+00  E=-8.736470D-03  Symmetry=ag

 Vector   20  Occ=0.000000D+00  E= 1.650321D-03  Symmetry=bu

 Vector   21  Occ=0.000000D+00  E= 3.313866D-02  Symmetry=ag

 Vector   22  Occ=0.000000D+00  E= 4.146154D-02  Symmetry=au

 Vector   23  Occ=0.000000D+00  E= 7.257588D-02  Symmetry=ag

 Vector   24  Occ=0.000000D+00  E= 8.117326D-02  Symmetry=bu

 Vector   25  Occ=0.000000D+00  E= 8.184481D-02  Symmetry=bg

 Vector   26  Occ=0.000000D+00  E= 8.521389D-02  Symmetry=ag

 Vector   27  Occ=0.000000D+00  E= 1.097664D-01  Symmetry=bu

 Vector   28  Occ=0.000000D+00  E= 1.148714D-01  Symmetry=ag

 Vector   29  Occ=0.000000D+00  E= 1.265457D-01  Symmetry=bu

 Vector   30  Occ=0.000000D+00  E= 1.373057D-01  Symmetry=bu

 Vector   31  Occ=0.000000D+00  E= 1.656218D-01  Symmetry=bg

 Vector   32  Occ=0.000000D+00  E= 1.794422D-01  Symmetry=bu

 Vector   33  Occ=0.000000D+00  E= 2.077365D-01  Symmetry=ag

 Vector   34  Occ=0.000000D+00  E= 2.173265D-01  Symmetry=bu

 Vector   35  Occ=0.000000D+00  E= 2.275617D-01  Symmetry=au

 Vector   36  Occ=0.000000D+00  E= 2.402633D-01  Symmetry=ag

 Vector   37  Occ=0.000000D+00  E= 2.560683D-01  Symmetry=au

 Vector   38  Occ=0.000000D+00  E= 2.646408D-01  Symmetry=bu

 Vector   39  Occ=0.000000D+00  E= 2.665245D-01  Symmetry=ag

 Vector   40  Occ=0.000000D+00  E= 2.727734D-01  Symmetry=bg

 Vector   41  Occ=0.000000D+00  E= 3.014162D-01  Symmetry=ag

 Vector   42  Occ=0.000000D+00  E= 3.087968D-01  Symmetry=bu

 Vector   43  Occ=0.000000D+00  E= 3.128485D-01  Symmetry=ag

 Vector   44  Occ=0.000000D+00  E= 3.553235D-01  Symmetry=bu

 Vector   45  Occ=0.000000D+00  E= 3.566081D-01  Symmetry=au

 Vector   46  Occ=0.000000D+00  E= 4.181946D-01  Symmetry=bu

 Vector   47  Occ=0.000000D+00  E= 4.220693D-01  Symmetry=ag

 Vector   48  Occ=0.000000D+00  E= 4.348009D-01  Symmetry=bg

 Vector   49  Occ=0.000000D+00  E= 4.449329D-01  Symmetry=au

 Vector   50  Occ=0.000000D+00  E= 4.620756D-01  Symmetry=bu

 Vector   51  Occ=0.000000D+00  E= 4.699795D-01  Symmetry=ag

 Vector   52  Occ=0.000000D+00  E= 4.955136D-01  Symmetry=bg

 Vector   53  Occ=0.000000D+00  E= 5.125735D-01  Symmetry=ag

     Multipole analysis of the density
     ---------------------------------

     L   x y z        total         alpha         beta         nuclear
     -   - - -        -----         -----         ----         -------
     0   0 0 0     -0.000000    -15.000000    -15.000000     30.000000

     1   1 0 0      0.000000      0.000000      0.000000      0.000000
     1   0 1 0     -0.000000     -0.000000     -0.000000      0.000000
     1   0 0 1      0.000000      0.000000      0.000000      0.000000

     2   2 0 0    -15.548826    -19.901290    -19.901290     24.253753
     2   1 1 0     -1.721516      0.472776      0.472776     -2.667067
     2   1 0 1      0.000000      0.000000      0.000000      0.000000
     2   0 2 0    -23.529064   -107.308164   -107.308164    191.087263
     2   0 1 1      0.000000      0.000000      0.000000      0.000000

 Total times  cpu:       38.6s     wall:       41.0s
