 Output coordinates in angstroms (scale by  1.889725989 to convert to a.u.)

  No.       Tag          Charge          X              Y              Z
 ---- ---------------- ---------- -------------- -------------- --------------
    1 Si                  14.0000     0.00000000     0.00000000     0.56084582
    2 O                    8.0000     0.00000000     0.00000000    -0.98148018

         Total DFT energy =     -364.816784394059

                       DFT Final Molecular Orbital Analysis
                       ------------------------------------

 Vector    1  Occ=2.000000D+00  E=-6.578091D+01  Symmetry=a1

 Vector    2  Occ=2.000000D+00  E=-1.895867D+01  Symmetry=a1

 Vector    3  Occ=2.000000D+00  E=-5.228723D+00  Symmetry=a1

 Vector    4  Occ=2.000000D+00  E=-3.609540D+00  Symmetry=e

 Vector    5  Occ=2.000000D+00  E=-3.609540D+00  Symmetry=e

 Vector    6  Occ=2.000000D+00  E=-3.602531D+00  Symmetry=a1

 Vector    7  Occ=2.000000D+00  E=-9.336016D-01  Symmetry=a1

 Vector    8  Occ=2.000000D+00  E=-4.619277D-01  Symmetry=a1

 Vector    9  Occ=2.000000D+00  E=-3.694009D-01  Symmetry=e

 Vector   10  Occ=2.000000D+00  E=-3.694009D-01  Symmetry=e

 Vector   11  Occ=2.000000D+00  E=-3.375533D-01  Symmetry=a1

 Vector   12  Occ=0.000000D+00  E=-1.674452D-01  Symmetry=e

 Vector   13  Occ=0.000000D+00  E=-1.674452D-01  Symmetry=e

 Vector   14  Occ=0.000000D+00  E=-6.056036D-02  Symmetry=a1

 Vector   15  Occ=0.000000D+00  E= 4.776030D-03  Symmetry=a1

 Vector   16  Occ=0.000000D+00  E= 4.233206D-02  Symmetry=e

 Vector   17  Occ=0.000000D+00  E= 4.233206D-02  Symmetry=e

 Vector   18  Occ=0.000000D+00  E= 6.530991D-02  Symmetry=b2

 Vector   19  Occ=0.000000D+00  E= 6.531272D-02  Symmetry=b1

 Vector   20  Occ=0.000000D+00  E= 6.891475D-02  Symmetry=a1

 Vector   21  Occ=0.000000D+00  E= 1.400188D-01  Symmetry=e

 Vector   22  Occ=0.000000D+00  E= 1.400188D-01  Symmetry=e

 Vector   23  Occ=0.000000D+00  E= 1.767768D-01  Symmetry=a1

 Vector   24  Occ=0.000000D+00  E= 1.912198D-01  Symmetry=a1

 Vector   25  Occ=0.000000D+00  E= 2.196565D-01  Symmetry=e

 Vector   26  Occ=0.000000D+00  E= 2.196565D-01  Symmetry=e

 Vector   27  Occ=0.000000D+00  E= 2.368179D-01  Symmetry=e

 Vector   28  Occ=0.000000D+00  E= 2.368179D-01  Symmetry=e

 Vector   29  Occ=0.000000D+00  E= 2.395269D-01  Symmetry=a1

 Vector   30  Occ=0.000000D+00  E= 2.957663D-01  Symmetry=a1

 Vector   31  Occ=0.000000D+00  E= 4.452263D-01  Symmetry=a1

 Vector   32  Occ=0.000000D+00  E= 6.278447D-01  Symmetry=b2

     Multipole analysis of the density
     ---------------------------------

     L   x y z        total         alpha         beta         nuclear
     -   - - -        -----         -----         ----         -------
     0   0 0 0     -0.000000    -11.000000    -11.000000     22.000000

     1   1 0 0      0.000000      0.000000      0.000000      0.000000
     1   0 1 0      0.000000      0.000000      0.000000      0.000000
     1   0 0 1      1.281795      0.640898      0.640898      0.000000

     2   2 0 0    -12.549027     -6.274513     -6.274513      0.000000
     2   1 1 0     -0.000000     -0.000000     -0.000000      0.000000
     2   1 0 1      0.000000      0.000000      0.000000      0.000000
     2   0 2 0    -12.549027     -6.274513     -6.274513      0.000000
     2   0 1 1      0.000000      0.000000      0.000000      0.000000

 Total times  cpu:        3.8s     wall:        4.2s
