 Output coordinates in angstroms (scale by  1.889725989 to convert to a.u.)

  No.       Tag          Charge          X              Y              Z
 ---- ---------------- ---------- -------------- -------------- --------------
    1 S                   16.0000     0.00000000     0.00000000     0.96011300
    2 S                   16.0000     0.00000000     0.00000000    -0.96011300

         Total DFT energy =     -796.520934425690

                    DFT Final Alpha Molecular Orbital Analysis
                    ------------------------------------------

 Vector    5  Occ=1.000000D+00  E=-5.865211D+00  Symmetry=a1g

 Vector    6  Occ=1.000000D+00  E=-5.864552D+00  Symmetry=a2u

 Vector    7  Occ=1.000000D+00  E=-5.864217D+00  Symmetry=eu

 Vector    8  Occ=1.000000D+00  E=-5.864217D+00  Symmetry=eu

 Vector    9  Occ=1.000000D+00  E=-5.864166D+00  Symmetry=eg

 Vector   10  Occ=1.000000D+00  E=-5.864166D+00  Symmetry=eg

 Vector   11  Occ=1.000000D+00  E=-8.309459D-01  Symmetry=a1g

 Vector   12  Occ=1.000000D+00  E=-6.431386D-01  Symmetry=a2u

 Vector   13  Occ=1.000000D+00  E=-4.250542D-01  Symmetry=a1g

 Vector   14  Occ=1.000000D+00  E=-4.054445D-01  Symmetry=eu

 Vector   15  Occ=1.000000D+00  E=-4.054445D-01  Symmetry=eu

 Vector   16  Occ=1.000000D+00  E=-2.796042D-01  Symmetry=eg

 Vector   17  Occ=1.000000D+00  E=-2.796042D-01  Symmetry=eg

 Vector   18  Occ=0.000000D+00  E=-1.080170D-01  Symmetry=a2u

 Vector   19  Occ=0.000000D+00  E=-2.989988D-02  Symmetry=a1g

 Vector   20  Occ=0.000000D+00  E= 3.001297D-02  Symmetry=eu

 Vector   21  Occ=0.000000D+00  E= 3.001297D-02  Symmetry=eu

 Vector   22  Occ=0.000000D+00  E= 3.215593D-02  Symmetry=a1g

 Vector   23  Occ=0.000000D+00  E= 3.388816D-02  Symmetry=a2u

 Vector   24  Occ=0.000000D+00  E= 5.154086D-02  Symmetry=b2g

 Vector   25  Occ=0.000000D+00  E= 5.154108D-02  Symmetry=b1g

 Vector   26  Occ=0.000000D+00  E= 7.140169D-02  Symmetry=eg

 Vector   27  Occ=0.000000D+00  E= 7.140169D-02  Symmetry=eg

 Vector   28  Occ=0.000000D+00  E= 8.722906D-02  Symmetry=eu

 Vector   29  Occ=0.000000D+00  E= 8.722906D-02  Symmetry=eu

 Vector   30  Occ=0.000000D+00  E= 1.215822D-01  Symmetry=a2u

 Vector   31  Occ=0.000000D+00  E= 1.690183D-01  Symmetry=a1g

 Vector   32  Occ=0.000000D+00  E= 1.828707D-01  Symmetry=b1u

 Vector   33  Occ=0.000000D+00  E= 1.828713D-01  Symmetry=b2u

 Vector   34  Occ=0.000000D+00  E= 2.312356D-01  Symmetry=a2u

 Vector   35  Occ=0.000000D+00  E= 2.515054D-01  Symmetry=eu

 Vector   36  Occ=0.000000D+00  E= 2.515054D-01  Symmetry=eu

 Vector   37  Occ=0.000000D+00  E= 2.678955D-01  Symmetry=a1g

 Vector   38  Occ=0.000000D+00  E= 2.798947D-01  Symmetry=eg

 Vector   39  Occ=0.000000D+00  E= 2.798947D-01  Symmetry=eg

 Vector   40  Occ=0.000000D+00  E= 3.735012D-01  Symmetry=a2u

 Vector   41  Occ=0.000000D+00  E= 3.878019D-01  Symmetry=a1g

 Vector   42  Occ=0.000000D+00  E= 3.908887D-01  Symmetry=eg

 Vector   43  Occ=0.000000D+00  E= 3.908887D-01  Symmetry=eg

 Vector   44  Occ=0.000000D+00  E= 6.043806D-01  Symmetry=a2u

 Vector    5  Occ=1.000000D+00  E=-5.862487D+00  Symmetry=a1g

 Vector    6  Occ=1.000000D+00  E=-5.861823D+00  Symmetry=a2u

 Vector    7  Occ=1.000000D+00  E=-5.855091D+00  Symmetry=eu

 Vector    8  Occ=1.000000D+00  E=-5.855091D+00  Symmetry=eu

 Vector    9  Occ=1.000000D+00  E=-5.855039D+00  Symmetry=eg

 Vector   10  Occ=1.000000D+00  E=-5.855039D+00  Symmetry=eg

 Vector   11  Occ=1.000000D+00  E=-8.118795D-01  Symmetry=a1g

 Vector   12  Occ=1.000000D+00  E=-6.031191D-01  Symmetry=a2u

 Vector   13  Occ=1.000000D+00  E=-4.129452D-01  Symmetry=a1g

 Vector   14  Occ=1.000000D+00  E=-3.756878D-01  Symmetry=eu

 Vector   15  Occ=1.000000D+00  E=-3.756878D-01  Symmetry=eu

 Vector   16  Occ=0.000000D+00  E=-2.347009D-01  Symmetry=eg

 Vector   17  Occ=0.000000D+00  E=-2.347009D-01  Symmetry=eg

 Vector   18  Occ=0.000000D+00  E=-9.701049D-02  Symmetry=a2u

 Vector   19  Occ=0.000000D+00  E=-2.412857D-02  Symmetry=a1g

 Vector   20  Occ=0.000000D+00  E= 3.664625D-02  Symmetry=eu

 Vector   21  Occ=0.000000D+00  E= 3.664625D-02  Symmetry=eu

 Vector   22  Occ=0.000000D+00  E= 3.980029D-02  Symmetry=a1g

 Vector   23  Occ=0.000000D+00  E= 4.089226D-02  Symmetry=a2u

 Vector   24  Occ=0.000000D+00  E= 7.043425D-02  Symmetry=b2g

 Vector   25  Occ=0.000000D+00  E= 7.043449D-02  Symmetry=b1g

 Vector   26  Occ=0.000000D+00  E= 8.145114D-02  Symmetry=eg

 Vector   27  Occ=0.000000D+00  E= 8.145114D-02  Symmetry=eg

 Vector   28  Occ=0.000000D+00  E= 9.966503D-02  Symmetry=eu

 Vector   29  Occ=0.000000D+00  E= 9.966503D-02  Symmetry=eu

 Vector   30  Occ=0.000000D+00  E= 1.285085D-01  Symmetry=a2u

 Vector   31  Occ=0.000000D+00  E= 1.760216D-01  Symmetry=a1g

 Vector   32  Occ=0.000000D+00  E= 2.101884D-01  Symmetry=b1u

 Vector   33  Occ=0.000000D+00  E= 2.101890D-01  Symmetry=b2u

 Vector   34  Occ=0.000000D+00  E= 2.370055D-01  Symmetry=a2u

 Vector   35  Occ=0.000000D+00  E= 2.631382D-01  Symmetry=eu

 Vector   36  Occ=0.000000D+00  E= 2.631382D-01  Symmetry=eu

 Vector   37  Occ=0.000000D+00  E= 2.762009D-01  Symmetry=a1g

 Vector   38  Occ=0.000000D+00  E= 2.946933D-01  Symmetry=eg

 Vector   39  Occ=0.000000D+00  E= 2.946933D-01  Symmetry=eg

 Vector   40  Occ=0.000000D+00  E= 3.840682D-01  Symmetry=a2u

 Vector   41  Occ=0.000000D+00  E= 3.942124D-01  Symmetry=a1g

 Vector   42  Occ=0.000000D+00  E= 4.040875D-01  Symmetry=eg

 Vector   43  Occ=0.000000D+00  E= 4.040875D-01  Symmetry=eg

 Vector   44  Occ=0.000000D+00  E= 6.133647D-01  Symmetry=a2u

     Multipole analysis of the density
     ---------------------------------

     L   x y z        total         alpha         beta         nuclear
     -   - - -        -----         -----         ----         -------
     0   0 0 0     -0.000000    -17.000000    -15.000000     32.000000

     1   1 0 0      0.000000      0.000000      0.000000      0.000000
     1   0 1 0      0.000000      0.000000      0.000000      0.000000
     1   0 0 1     -0.000000      0.000000     -0.000000      0.000000

     2   2 0 0    -19.718664    -11.733419     -7.985246      0.000000
     2   1 1 0      0.000000      0.000000      0.000000      0.000000
     2   1 0 1      0.000000      0.000000      0.000000      0.000000
     2   0 2 0    -19.718664    -11.733419     -7.985246      0.000000
     2   0 1 1      0.000000      0.000000      0.000000      0.000000

 Total times  cpu:        5.5s     wall:        5.8s
