 Output coordinates in angstroms (scale by  1.889725989 to convert to a.u.)

  No.       Tag          Charge          X              Y              Z
 ---- ---------------- ---------- -------------- -------------- --------------
    1 Si                  14.0000     0.00000000     0.00000000     0.00000000
    2 H                    1.0000     0.85613500    -0.85613500     0.85613500
    3 H                    1.0000    -0.85613500     0.85613500     0.85613500
    4 H                    1.0000     0.85613500     0.85613500    -0.85613500
    5 H                    1.0000    -0.85613500    -0.85613500    -0.85613500

         Total DFT energy =     -291.927455364169

                       DFT Final Molecular Orbital Analysis
                       ------------------------------------

 Vector    1  Occ=2.000000D+00  E=-6.573133D+01  Symmetry=a1

 Vector    2  Occ=2.000000D+00  E=-5.187684D+00  Symmetry=a1

 Vector    3  Occ=2.000000D+00  E=-3.565512D+00  Symmetry=t2

 Vector    4  Occ=2.000000D+00  E=-3.565512D+00  Symmetry=t2

 Vector    5  Occ=2.000000D+00  E=-3.565512D+00  Symmetry=t2

 Vector    6  Occ=2.000000D+00  E=-5.566877D-01  Symmetry=a1

 Vector    7  Occ=2.000000D+00  E=-3.693419D-01  Symmetry=t2

 Vector    8  Occ=2.000000D+00  E=-3.693419D-01  Symmetry=t2

 Vector    9  Occ=2.000000D+00  E=-3.693419D-01  Symmetry=t2

 Vector   10  Occ=0.000000D+00  E=-5.681073D-02  Symmetry=t2

 Vector   11  Occ=0.000000D+00  E=-5.681073D-02  Symmetry=t2

 Vector   12  Occ=0.000000D+00  E=-5.681073D-02  Symmetry=t2

 Vector   13  Occ=0.000000D+00  E=-3.203797D-02  Symmetry=a1

 Vector   14  Occ=0.000000D+00  E= 3.112777D-02  Symmetry=t2

 Vector   15  Occ=0.000000D+00  E= 3.112777D-02  Symmetry=t2

 Vector   16  Occ=0.000000D+00  E= 3.112777D-02  Symmetry=t2

 Vector   17  Occ=0.000000D+00  E= 3.169812D-02  Symmetry=e

 Vector   18  Occ=0.000000D+00  E= 3.169812D-02  Symmetry=e

 Vector   19  Occ=0.000000D+00  E= 8.175917D-02  Symmetry=a1

 Vector   20  Occ=0.000000D+00  E= 9.136374D-02  Symmetry=t2

 Vector   21  Occ=0.000000D+00  E= 9.136374D-02  Symmetry=t2

 Vector   22  Occ=0.000000D+00  E= 9.136374D-02  Symmetry=t2

 Vector   23  Occ=0.000000D+00  E= 1.102364D-01  Symmetry=a1

 Vector   24  Occ=0.000000D+00  E= 2.048733D-01  Symmetry=t2

 Vector   25  Occ=0.000000D+00  E= 2.048733D-01  Symmetry=t2

 Vector   26  Occ=0.000000D+00  E= 2.048733D-01  Symmetry=t2

 Vector   27  Occ=0.000000D+00  E= 2.559575D-01  Symmetry=t2

 Vector   28  Occ=0.000000D+00  E= 2.559575D-01  Symmetry=t2

 Vector   29  Occ=0.000000D+00  E= 2.559575D-01  Symmetry=t2

 Vector   30  Occ=0.000000D+00  E= 2.904147D-01  Symmetry=a1

 Vector   31  Occ=0.000000D+00  E= 2.965073D-01  Symmetry=t1

 Vector   32  Occ=0.000000D+00  E= 2.965073D-01  Symmetry=t1

 Vector   33  Occ=0.000000D+00  E= 2.965073D-01  Symmetry=t1

 Vector   34  Occ=0.000000D+00  E= 3.769625D-01  Symmetry=a1

 Vector   35  Occ=0.000000D+00  E= 3.983150D-01  Symmetry=t2

 Vector   36  Occ=0.000000D+00  E= 3.983150D-01  Symmetry=t2

 Vector   37  Occ=0.000000D+00  E= 3.983150D-01  Symmetry=t2

 Vector   38  Occ=0.000000D+00  E= 4.909690D-01  Symmetry=t2

 Vector   39  Occ=0.000000D+00  E= 4.909690D-01  Symmetry=t2

 Vector   40  Occ=0.000000D+00  E= 4.909690D-01  Symmetry=t2

 Vector   41  Occ=0.000000D+00  E= 5.560661D-01  Symmetry=e

     Multipole analysis of the density
     ---------------------------------

     L   x y z        total         alpha         beta         nuclear
     -   - - -        -----         -----         ----         -------
     0   0 0 0     -0.000000     -9.000000     -9.000000     18.000000

     1   1 0 0     -0.000000     -0.000000     -0.000000      0.000000
     1   0 1 0      0.000000      0.000000      0.000000      0.000000
     1   0 0 1      0.000000      0.000000      0.000000      0.000000

     2   2 0 0    -12.820535    -11.645213    -11.645213     10.469891
     2   1 1 0     -0.000000     -0.000000     -0.000000      0.000000
     2   1 0 1      0.000000      0.000000      0.000000      0.000000
     2   0 2 0    -12.820535    -11.645213    -11.645213     10.469891
     2   0 1 1      0.000000      0.000000      0.000000      0.000000

 Total times  cpu:        3.9s     wall:        4.2s
