 Output coordinates in angstroms (scale by  1.889725989 to convert to a.u.)

  No.       Tag          Charge          X              Y              Z
 ---- ---------------- ---------- -------------- -------------- --------------
    1 C                    6.0000     0.00000000     0.00000000     0.00000000
    2 H                    1.0000     0.00000000     0.00000000     1.07732000
    3 H                    1.0000     0.93298000     0.00000000    -0.53866000
    4 H                    1.0000    -0.93298000     0.00000000    -0.53866000

         Total DFT energy =      -39.842117879694

                    DFT Final Alpha Molecular Orbital Analysis
                    ------------------------------------------

 Vector    1  Occ=1.000000D+00  E=-1.007276D+01

 Vector    2  Occ=1.000000D+00  E=-6.875469D-01

 Vector    3  Occ=1.000000D+00  E=-4.315117D-01

 Vector    4  Occ=1.000000D+00  E=-4.315116D-01

 Vector    5  Occ=1.000000D+00  E=-2.682055D-01

 Vector    6  Occ=0.000000D+00  E=-1.871005D-02

 Vector    7  Occ=0.000000D+00  E= 3.068607D-02

 Vector    8  Occ=0.000000D+00  E= 3.068607D-02

 Vector    9  Occ=0.000000D+00  E= 6.132064D-02

 Vector   10  Occ=0.000000D+00  E= 6.611545D-02

 Vector   11  Occ=0.000000D+00  E= 6.611587D-02

 Vector   12  Occ=0.000000D+00  E= 9.132041D-02

 Vector   13  Occ=0.000000D+00  E= 1.051874D-01

 Vector   14  Occ=0.000000D+00  E= 1.471981D-01

 Vector   15  Occ=0.000000D+00  E= 1.471983D-01

 Vector   16  Occ=0.000000D+00  E= 2.172498D-01

 Vector   17  Occ=0.000000D+00  E= 2.172505D-01

 Vector   18  Occ=0.000000D+00  E= 2.703185D-01

 Vector   19  Occ=0.000000D+00  E= 2.703191D-01

 Vector   20  Occ=0.000000D+00  E= 3.081370D-01

 Vector   21  Occ=0.000000D+00  E= 4.075015D-01

 Vector   22  Occ=0.000000D+00  E= 4.328787D-01

 Vector   23  Occ=0.000000D+00  E= 4.365603D-01

 Vector   24  Occ=0.000000D+00  E= 4.554316D-01

 Vector   25  Occ=0.000000D+00  E= 4.805340D-01

 Vector   26  Occ=0.000000D+00  E= 4.805362D-01

 Vector   27  Occ=0.000000D+00  E= 5.133722D-01

 Vector    1  Occ=1.000000D+00  E=-1.005919D+01

 Vector    2  Occ=1.000000D+00  E=-6.568802D-01

 Vector    3  Occ=1.000000D+00  E=-4.262954D-01

 Vector    4  Occ=1.000000D+00  E=-4.262952D-01

 Vector    5  Occ=0.000000D+00  E=-1.784220D-01

 Vector    6  Occ=0.000000D+00  E=-8.956821D-03

 Vector    7  Occ=0.000000D+00  E= 3.405993D-02

 Vector    8  Occ=0.000000D+00  E= 3.406016D-02

 Vector    9  Occ=0.000000D+00  E= 6.877831D-02

 Vector   10  Occ=0.000000D+00  E= 6.877852D-02

 Vector   11  Occ=0.000000D+00  E= 8.816844D-02

 Vector   12  Occ=0.000000D+00  E= 1.107853D-01

 Vector   13  Occ=0.000000D+00  E= 1.179222D-01

 Vector   14  Occ=0.000000D+00  E= 1.539329D-01

 Vector   15  Occ=0.000000D+00  E= 1.539332D-01

 Vector   16  Occ=0.000000D+00  E= 2.262713D-01

 Vector   17  Occ=0.000000D+00  E= 2.262720D-01

 Vector   18  Occ=0.000000D+00  E= 2.716683D-01

 Vector   19  Occ=0.000000D+00  E= 2.716689D-01

 Vector   20  Occ=0.000000D+00  E= 3.263671D-01

 Vector   21  Occ=0.000000D+00  E= 4.217455D-01

 Vector   22  Occ=0.000000D+00  E= 4.336700D-01

 Vector   23  Occ=0.000000D+00  E= 4.597067D-01

 Vector   24  Occ=0.000000D+00  E= 4.737330D-01

 Vector   25  Occ=0.000000D+00  E= 4.925464D-01

 Vector   26  Occ=0.000000D+00  E= 4.925485D-01

 Vector   27  Occ=0.000000D+00  E= 5.175526D-01

     Multipole analysis of the density
     ---------------------------------

     L   x y z        total         alpha         beta         nuclear
     -   - - -        -----         -----         ----         -------
     0   0 0 0     -0.000000     -5.000000     -4.000000      9.000000

     1   1 0 0      0.000000      0.000000      0.000000      0.000000
     1   0 1 0      0.000000      0.000000      0.000000      0.000000
     1   0 0 1     -0.000002      0.000001     -0.000003      0.000000

     2   2 0 0     -5.594229     -6.240594     -5.570513      6.216878
     2   1 1 0      0.000000     -0.000000      0.000000      0.000000
     2   1 0 1     -0.000000     -0.000000     -0.000000      0.000000
     2   0 2 0     -7.008152     -4.802516     -2.205636      0.000000
     2   0 1 1     -0.000000     -0.000000     -0.000000      0.000000

 Total times  cpu:       12.3s     wall:       13.0s
