 Output coordinates in angstroms (scale by  1.889725989 to convert to a.u.)

  No.       Tag          Charge          X              Y              Z
 ---- ---------------- ---------- -------------- -------------- --------------
    1 C                    6.0000     0.00000100     0.00000000     0.00000000
    2 H                    1.0000     0.00000100     0.00000000     1.08744000
    3 H                    1.0000     1.02525100     0.00000000    -0.36248000
    4 H                    1.0000    -0.51262900     0.88789000    -0.36248000
    5 H                    1.0000    -0.51262900    -0.88789000    -0.36248000

         Total DFT energy =      -40.514230920913

                       DFT Final Molecular Orbital Analysis
                       ------------------------------------

 Vector    1  Occ=2.000000D+00  E=-1.003756D+01

 Vector    2  Occ=2.000000D+00  E=-6.965993D-01

 Vector    3  Occ=2.000000D+00  E=-4.086529D-01

 Vector    4  Occ=2.000000D+00  E=-4.086520D-01

 Vector    5  Occ=2.000000D+00  E=-4.086512D-01

 Vector    6  Occ=0.000000D+00  E=-1.984102D-02

 Vector    7  Occ=0.000000D+00  E= 3.312812D-02

 Vector    8  Occ=0.000000D+00  E= 3.312822D-02

 Vector    9  Occ=0.000000D+00  E= 3.312827D-02

 Vector   10  Occ=0.000000D+00  E= 5.818044D-02

 Vector   11  Occ=0.000000D+00  E= 5.818067D-02

 Vector   12  Occ=0.000000D+00  E= 5.818130D-02

 Vector   13  Occ=0.000000D+00  E= 9.627365D-02

 Vector   14  Occ=0.000000D+00  E= 1.475135D-01

 Vector   15  Occ=0.000000D+00  E= 1.475135D-01

 Vector   16  Occ=0.000000D+00  E= 1.475136D-01

 Vector   17  Occ=0.000000D+00  E= 1.872570D-01

 Vector   18  Occ=0.000000D+00  E= 1.872577D-01

 Vector   19  Occ=0.000000D+00  E= 2.231119D-01

 Vector   20  Occ=0.000000D+00  E= 2.629113D-01

 Vector   21  Occ=0.000000D+00  E= 2.629120D-01

 Vector   22  Occ=0.000000D+00  E= 2.629124D-01

 Vector   23  Occ=0.000000D+00  E= 4.360360D-01

 Vector   24  Occ=0.000000D+00  E= 4.489328D-01

 Vector   25  Occ=0.000000D+00  E= 4.489331D-01

 Vector   26  Occ=0.000000D+00  E= 4.489335D-01

 Vector   27  Occ=0.000000D+00  E= 4.892615D-01

 Vector   28  Occ=0.000000D+00  E= 4.892623D-01

 Vector   29  Occ=0.000000D+00  E= 4.892634D-01

 Vector   30  Occ=0.000000D+00  E= 4.912063D-01

 Vector   31  Occ=0.000000D+00  E= 5.133944D-01

     Multipole analysis of the density
     ---------------------------------

     L   x y z        total         alpha         beta         nuclear
     -   - - -        -----         -----         ----         -------
     0   0 0 0     -0.000000     -5.000000     -5.000000     10.000000

     1   1 0 0     -0.000001     -0.000000     -0.000000      0.000000
     1   0 1 0      0.000000      0.000000      0.000000      0.000000
     1   0 0 1     -0.000001     -0.000000     -0.000000     -0.000000

     2   2 0 0     -6.565801     -6.098178     -6.098178      5.630556
     2   1 1 0     -0.000000     -0.000000     -0.000000      0.000000
     2   1 0 1      0.000004     -0.000005     -0.000005      0.000013
     2   0 2 0     -6.565825     -6.098156     -6.098156      5.630487
     2   0 1 1     -0.000000     -0.000000     -0.000000      0.000000

 Total times  cpu:       14.8s     wall:       15.6s
