 Output coordinates in angstroms (scale by  1.889725989 to convert to a.u.)

  No.       Tag          Charge          X              Y              Z
 ---- ---------------- ---------- -------------- -------------- --------------
    1 S                   16.0000     0.00000000     0.00000000     0.10251889
    2 H                    1.0000     0.00000000     0.96625000    -0.82015111
    3 H                    1.0000     0.00000000    -0.96625000    -0.82015111

         Total DFT energy =     -399.459527513395

                       DFT Final Molecular Orbital Analysis
                       ------------------------------------

 Vector    1  Occ=2.000000D+00  E=-8.843393D+01

 Vector    2  Occ=2.000000D+00  E=-7.834542D+00

 Vector    3  Occ=2.000000D+00  E=-5.817205D+00

 Vector    4  Occ=2.000000D+00  E=-5.814464D+00

 Vector    5  Occ=2.000000D+00  E=-5.807700D+00

 Vector    6  Occ=2.000000D+00  E=-7.451345D-01

 Vector    7  Occ=2.000000D+00  E=-4.651169D-01

 Vector    8  Occ=2.000000D+00  E=-3.942108D-01

 Vector    9  Occ=2.000000D+00  E=-2.953009D-01

 Vector   10  Occ=0.000000D+00  E=-7.246676D-02

 Vector   11  Occ=0.000000D+00  E=-5.431944D-02

 Vector   12  Occ=0.000000D+00  E= 2.960286D-02

 Vector   13  Occ=0.000000D+00  E= 3.108038D-02

 Vector   14  Occ=0.000000D+00  E= 4.185316D-02

 Vector   15  Occ=0.000000D+00  E= 4.918395D-02

 Vector   16  Occ=0.000000D+00  E= 7.452234D-02

 Vector   17  Occ=0.000000D+00  E= 8.703565D-02

 Vector   18  Occ=0.000000D+00  E= 9.635817D-02

 Vector   19  Occ=0.000000D+00  E= 9.953248D-02

 Vector   20  Occ=0.000000D+00  E= 1.092875D-01

 Vector   21  Occ=0.000000D+00  E= 2.341576D-01

 Vector   22  Occ=0.000000D+00  E= 2.465467D-01

 Vector   23  Occ=0.000000D+00  E= 2.554179D-01

 Vector   24  Occ=0.000000D+00  E= 2.752532D-01

 Vector   25  Occ=0.000000D+00  E= 3.242826D-01

 Vector   26  Occ=0.000000D+00  E= 3.584055D-01

 Vector   27  Occ=0.000000D+00  E= 3.803633D-01

 Vector   28  Occ=0.000000D+00  E= 3.971367D-01

 Vector   29  Occ=0.000000D+00  E= 4.021974D-01

 Vector   30  Occ=0.000000D+00  E= 4.412486D-01

 Vector   31  Occ=0.000000D+00  E= 4.823950D-01

 Vector   32  Occ=0.000000D+00  E= 4.879178D-01

 Vector   33  Occ=0.000000D+00  E= 7.162035D-01

     Multipole analysis of the density
     ---------------------------------

     L   x y z        total         alpha         beta         nuclear
     -   - - -        -----         -----         ----         -------
     0   0 0 0     -0.000000     -9.000000     -9.000000     18.000000

     1   1 0 0      0.000000      0.000000      0.000000      0.000000
     1   0 1 0      0.000000      0.000000      0.000000      0.000000
     1   0 0 1     -0.418966     -0.209483     -0.209483      0.000000

     2   2 0 0    -12.695887     -6.347944     -6.347944      0.000000
     2   1 1 0      0.000000      0.000000      0.000000      0.000000
     2   1 0 1     -0.000000     -0.000000     -0.000000      0.000000
     2   0 2 0     -9.438247     -8.053209     -8.053209      6.668170
     2   0 1 1     -0.000000     -0.000000     -0.000000      0.000000

 Total times  cpu:        9.9s     wall:       10.2s
