 Output coordinates in angstroms (scale by  1.889725989 to convert to a.u.)

  No.       Tag          Charge          X              Y              Z
 ---- ---------------- ---------- -------------- -------------- --------------
    1 F                    9.0000     0.00000000     0.00000000    -0.09153800
    2 H                    1.0000     0.00000000     0.00000000     0.82384200

         Total DFT energy =     -100.487280407527

                       DFT Final Molecular Orbital Analysis
                       ------------------------------------

 Vector    1  Occ=2.000000D+00  E=-2.448492D+01

 Vector    2  Occ=2.000000D+00  E=-1.191301D+00

 Vector    3  Occ=2.000000D+00  E=-5.702247D-01

 Vector    4  Occ=2.000000D+00  E=-4.349650D-01

 Vector    5  Occ=2.000000D+00  E=-4.349650D-01

 Vector    6  Occ=0.000000D+00  E=-4.233725D-02

 Vector    7  Occ=0.000000D+00  E= 8.802026D-02

 Vector    8  Occ=0.000000D+00  E= 1.815569D-01

 Vector    9  Occ=0.000000D+00  E= 1.826736D-01

 Vector   10  Occ=0.000000D+00  E= 1.826736D-01

 Vector   11  Occ=0.000000D+00  E= 2.695633D-01

 Vector   12  Occ=0.000000D+00  E= 3.434855D-01

 Vector   13  Occ=0.000000D+00  E= 3.434856D-01

 Vector   14  Occ=0.000000D+00  E= 3.737873D-01

 Vector   15  Occ=0.000000D+00  E= 6.765516D-01

     Multipole analysis of the density
     ---------------------------------

     L   x y z        total         alpha         beta         nuclear
     -   - - -        -----         -----         ----         -------
     0   0 0 0     -0.000000     -5.000000     -5.000000     10.000000

     1   1 0 0     -0.000000     -0.000000     -0.000000      0.000000
     1   0 1 0      0.000000      0.000000      0.000000      0.000000
     1   0 0 1      0.716787      0.358393      0.358393      0.000000

     2   2 0 0     -4.377961     -2.188981     -2.188981      0.000000
     2   1 1 0     -0.000000     -0.000000     -0.000000      0.000000
     2   1 0 1      0.000000      0.000000      0.000000      0.000000
     2   0 2 0     -4.377961     -2.188981     -2.188981      0.000000
     2   0 1 1     -0.000000     -0.000000     -0.000000      0.000000

 Total times  cpu:        2.4s     wall:        2.8s
