 Output coordinates in angstroms (scale by  1.889725989 to convert to a.u.)

  No.       Tag          Charge          X              Y              Z
 ---- ---------------- ---------- -------------- -------------- --------------
    1 S                   16.0000     0.00000000     0.00000000    -0.07883529
    2 H                    1.0000     0.00000000     0.00000000     1.26136471

         Total DFT energy =     -398.810873846938

                    DFT Final Alpha Molecular Orbital Analysis
                    ------------------------------------------

 Vector    1  Occ=1.000000D+00  E=-8.846473D+01

 Vector    2  Occ=1.000000D+00  E=-7.860110D+00

 Vector    3  Occ=1.000000D+00  E=-5.849039D+00

 Vector    4  Occ=1.000000D+00  E=-5.839972D+00

 Vector    5  Occ=1.000000D+00  E=-5.831385D+00

 Vector    6  Occ=1.000000D+00  E=-7.372626D-01

 Vector    7  Occ=1.000000D+00  E=-4.311184D-01

 Vector    8  Occ=1.000000D+00  E=-3.558591D-01

 Vector    9  Occ=1.000000D+00  E=-2.998388D-01

 Vector   10  Occ=0.000000D+00  E=-6.475878D-02

 Vector   11  Occ=0.000000D+00  E= 8.670374D-04

 Vector   12  Occ=0.000000D+00  E= 3.917874D-02

 Vector   13  Occ=0.000000D+00  E= 4.285646D-02

 Vector   14  Occ=0.000000D+00  E= 4.905063D-02

 Vector   15  Occ=0.000000D+00  E= 8.318004D-02

 Vector   16  Occ=0.000000D+00  E= 9.099456D-02

 Vector   17  Occ=0.000000D+00  E= 1.036079D-01

 Vector   18  Occ=0.000000D+00  E= 1.233418D-01

 Vector   19  Occ=0.000000D+00  E= 1.260501D-01

 Vector   20  Occ=0.000000D+00  E= 2.255897D-01

 Vector   21  Occ=0.000000D+00  E= 2.565969D-01

 Vector   22  Occ=0.000000D+00  E= 2.677586D-01

 Vector   23  Occ=0.000000D+00  E= 2.758046D-01

 Vector   24  Occ=0.000000D+00  E= 3.837142D-01

 Vector   25  Occ=0.000000D+00  E= 4.113383D-01

 Vector   26  Occ=0.000000D+00  E= 4.128732D-01

 Vector   27  Occ=0.000000D+00  E= 4.180898D-01

 Vector   28  Occ=0.000000D+00  E= 7.080609D-01

 Vector    1  Occ=1.000000D+00  E=-8.845941D+01

 Vector    2  Occ=1.000000D+00  E=-7.855795D+00

 Vector    3  Occ=1.000000D+00  E=-5.837342D+00

 Vector    4  Occ=1.000000D+00  E=-5.835117D+00

 Vector    5  Occ=1.000000D+00  E=-5.828672D+00

 Vector    6  Occ=1.000000D+00  E=-7.053796D-01

 Vector    7  Occ=1.000000D+00  E=-4.231556D-01

 Vector    8  Occ=1.000000D+00  E=-2.932695D-01

 Vector    9  Occ=0.000000D+00  E=-2.841305D-01

 Vector   10  Occ=0.000000D+00  E=-5.444298D-02

 Vector   11  Occ=0.000000D+00  E= 7.476537D-03

 Vector   12  Occ=0.000000D+00  E= 4.232005D-02

 Vector   13  Occ=0.000000D+00  E= 5.096793D-02

 Vector   14  Occ=0.000000D+00  E= 5.661472D-02

 Vector   15  Occ=0.000000D+00  E= 9.476820D-02

 Vector   16  Occ=0.000000D+00  E= 1.023856D-01

 Vector   17  Occ=0.000000D+00  E= 1.027082D-01

 Vector   18  Occ=0.000000D+00  E= 1.425834D-01

 Vector   19  Occ=0.000000D+00  E= 1.466805D-01

 Vector   20  Occ=0.000000D+00  E= 2.303945D-01

 Vector   21  Occ=0.000000D+00  E= 2.611040D-01

 Vector   22  Occ=0.000000D+00  E= 2.796162D-01

 Vector   23  Occ=0.000000D+00  E= 2.920537D-01

 Vector   24  Occ=0.000000D+00  E= 3.922449D-01

 Vector   25  Occ=0.000000D+00  E= 4.168402D-01

 Vector   26  Occ=0.000000D+00  E= 4.173608D-01

 Vector   27  Occ=0.000000D+00  E= 4.192444D-01

 Vector   28  Occ=0.000000D+00  E= 7.128957D-01

     Multipole analysis of the density
     ---------------------------------

     L   x y z        total         alpha         beta         nuclear
     -   - - -        -----         -----         ----         -------
     0   0 0 0     -0.000000     -9.000000     -8.000000     17.000000

     1   1 0 0     -0.000000      0.000000     -0.000001      0.000000
     1   0 1 0     -0.000000     -0.000000     -0.000000      0.000000
     1   0 0 1      0.325753      0.170487      0.155266      0.000000

     2   2 0 0    -10.045781     -6.501289     -3.544492      0.000000
     2   1 1 0     -0.499024      0.031586     -0.530610      0.000000
     2   1 0 1     -0.000001      0.000000     -0.000001      0.000000
     2   0 2 0    -11.840017     -6.387739     -5.452277      0.000000
     2   0 1 1     -0.000000     -0.000000      0.000000      0.000000

 Total times  cpu:       11.0s     wall:       11.4s
