 Output coordinates in angstroms (scale by  1.889725989 to convert to a.u.)

  No.       Tag          Charge          X              Y              Z
 ---- ---------------- ---------- -------------- -------------- --------------
    1 O                    8.0000     0.00000000     0.00000000    -0.10765556
    2 H                    1.0000     0.00000000     0.00000000     0.86124444

         Total DFT energy =      -75.763379792205

                    DFT Final Alpha Molecular Orbital Analysis
                    ------------------------------------------

 Vector    1  Occ=1.000000D+00  E=-1.903839D+01

 Vector    2  Occ=1.000000D+00  E=-1.013568D+00

 Vector    3  Occ=1.000000D+00  E=-4.945596D-01

 Vector    4  Occ=1.000000D+00  E=-4.466521D-01

 Vector    5  Occ=1.000000D+00  E=-3.628947D-01

 Vector    6  Occ=0.000000D+00  E=-3.606250D-02

 Vector    7  Occ=0.000000D+00  E= 9.240349D-02

 Vector    8  Occ=0.000000D+00  E= 1.286575D-01

 Vector    9  Occ=0.000000D+00  E= 1.364128D-01

 Vector   10  Occ=0.000000D+00  E= 1.384656D-01

 Vector   11  Occ=0.000000D+00  E= 1.891698D-01

 Vector   12  Occ=0.000000D+00  E= 3.143384D-01

 Vector   13  Occ=0.000000D+00  E= 3.163980D-01

 Vector   14  Occ=0.000000D+00  E= 3.994255D-01

 Vector   15  Occ=0.000000D+00  E= 6.195401D-01

 Vector    1  Occ=1.000000D+00  E=-1.901432D+01

 Vector    2  Occ=1.000000D+00  E=-9.592850D-01

 Vector    3  Occ=1.000000D+00  E=-4.786096D-01

 Vector    4  Occ=1.000000D+00  E=-3.489254D-01

 Vector    5  Occ=0.000000D+00  E=-3.070935D-01

 Vector    6  Occ=0.000000D+00  E=-2.907330D-02

 Vector    7  Occ=0.000000D+00  E= 9.795499D-02

 Vector    8  Occ=0.000000D+00  E= 1.415693D-01

 Vector    9  Occ=0.000000D+00  E= 1.422923D-01

 Vector   10  Occ=0.000000D+00  E= 1.548809D-01

 Vector   11  Occ=0.000000D+00  E= 1.944846D-01

 Vector   12  Occ=0.000000D+00  E= 3.155698D-01

 Vector   13  Occ=0.000000D+00  E= 3.236052D-01

 Vector   14  Occ=0.000000D+00  E= 4.045704D-01

 Vector   15  Occ=0.000000D+00  E= 6.284897D-01

     Multipole analysis of the density
     ---------------------------------

     L   x y z        total         alpha         beta         nuclear
     -   - - -        -----         -----         ----         -------
     0   0 0 0     -0.000000     -5.000000     -4.000000      9.000000

     1   1 0 0     -0.000000     -0.000000     -0.000000      0.000000
     1   0 1 0      0.000000      0.000000      0.000000      0.000000
     1   0 0 1      0.660573      0.408602      0.251970      0.000000

     2   2 0 0     -5.147902     -2.739849     -2.408053      0.000000
     2   1 1 0     -0.152673     -0.007304     -0.145369      0.000000
     2   1 0 1      0.000000      0.000000      0.000000      0.000000
     2   0 2 0     -4.190741     -2.694063     -1.496679      0.000000
     2   0 1 1     -0.000000     -0.000000     -0.000000      0.000000

 Total times  cpu:        4.8s     wall:        5.1s
