 Output coordinates in angstroms (scale by  1.889725989 to convert to a.u.)

  No.       Tag          Charge          X              Y              Z
 ---- ---------------- ---------- -------------- -------------- --------------
    1 C                    6.0000    -1.21149158     0.00796789     0.00041000
    2 O                    8.0000     1.29396842    -0.10869211     0.00013000
    3 H                    1.0000     0.00947842    -0.11802211     0.00280000
    4 H                    1.0000    -1.52553158    -0.23325211     1.01007000
    5 H                    1.0000    -1.43067158     1.03322789    -0.27808000
    6 H                    1.0000    -1.55271158    -0.71011211    -0.73770000
    7 H                    1.0000     1.41663842     0.84988789    -0.00059000

         Total DFT energy =     -116.279903469658

                    DFT Final Alpha Molecular Orbital Analysis
                    ------------------------------------------

 Vector    1  Occ=1.000000D+00  E=-1.898292D+01

 Vector   10  Occ=1.000000D+00  E=-3.150927D-01

 Vector   11  Occ=0.000000D+00  E=-3.816351D-02

 Vector   12  Occ=0.000000D+00  E=-1.670148D-03

 Vector   13  Occ=0.000000D+00  E= 2.280154D-02

 Vector   14  Occ=0.000000D+00  E= 2.551301D-02

 Vector   15  Occ=0.000000D+00  E= 4.577792D-02

 Vector   16  Occ=0.000000D+00  E= 4.789388D-02

 Vector   17  Occ=0.000000D+00  E= 5.126415D-02

 Vector   18  Occ=0.000000D+00  E= 7.465955D-02

 Vector   19  Occ=0.000000D+00  E= 8.915170D-02

 Vector   20  Occ=0.000000D+00  E= 1.082674D-01

 Vector   21  Occ=0.000000D+00  E= 1.321041D-01

 Vector   22  Occ=0.000000D+00  E= 1.333338D-01

 Vector   23  Occ=0.000000D+00  E= 1.417591D-01

 Vector   24  Occ=0.000000D+00  E= 1.567023D-01

 Vector   25  Occ=0.000000D+00  E= 1.725359D-01

 Vector   26  Occ=0.000000D+00  E= 2.010697D-01

 Vector   27  Occ=0.000000D+00  E= 2.131065D-01

 Vector   28  Occ=0.000000D+00  E= 2.318965D-01

 Vector   29  Occ=0.000000D+00  E= 2.466790D-01

 Vector   30  Occ=0.000000D+00  E= 2.575346D-01

 Vector   31  Occ=0.000000D+00  E= 2.608314D-01

 Vector   32  Occ=0.000000D+00  E= 2.638434D-01

 Vector   33  Occ=0.000000D+00  E= 3.153091D-01

 Vector   34  Occ=0.000000D+00  E= 3.188106D-01

 Vector   35  Occ=0.000000D+00  E= 3.878168D-01

 Vector   36  Occ=0.000000D+00  E= 4.306234D-01

 Vector   37  Occ=0.000000D+00  E= 4.325778D-01

 Vector   38  Occ=0.000000D+00  E= 4.412348D-01

 Vector   39  Occ=0.000000D+00  E= 4.523559D-01

 Vector   40  Occ=0.000000D+00  E= 4.758067D-01

 Vector   41  Occ=0.000000D+00  E= 4.825885D-01

 Vector   42  Occ=0.000000D+00  E= 4.899457D-01

 Vector   43  Occ=0.000000D+00  E= 4.930807D-01

 Vector   44  Occ=0.000000D+00  E= 4.972231D-01

 Vector   45  Occ=0.000000D+00  E= 5.114045D-01

 Vector    1  Occ=1.000000D+00  E=-1.896854D+01

 Vector    2  Occ=1.000000D+00  E=-1.007668D+01

 Vector    3  Occ=1.000000D+00  E=-9.511848D-01

 Vector    4  Occ=1.000000D+00  E=-7.099393D-01

 Vector    5  Occ=1.000000D+00  E=-4.880754D-01

 Vector    6  Occ=1.000000D+00  E=-4.420466D-01

 Vector    7  Occ=1.000000D+00  E=-4.415432D-01

 Vector    8  Occ=1.000000D+00  E=-4.206756D-01

 Vector    9  Occ=1.000000D+00  E=-3.260772D-01

 Vector   10  Occ=0.000000D+00  E=-2.431413D-01

 Vector   11  Occ=0.000000D+00  E=-3.363167D-02

 Vector   12  Occ=0.000000D+00  E= 3.541730D-03

 Vector   13  Occ=0.000000D+00  E= 2.549862D-02

 Vector   14  Occ=0.000000D+00  E= 2.789601D-02

 Vector   15  Occ=0.000000D+00  E= 4.787419D-02

 Vector   16  Occ=0.000000D+00  E= 5.312286D-02

 Vector   17  Occ=0.000000D+00  E= 5.329724D-02

 Vector   18  Occ=0.000000D+00  E= 7.693753D-02

 Vector   19  Occ=0.000000D+00  E= 9.352853D-02

 Vector   20  Occ=0.000000D+00  E= 1.135462D-01

 Vector   21  Occ=0.000000D+00  E= 1.368315D-01

 Vector   22  Occ=0.000000D+00  E= 1.373688D-01

 Vector   23  Occ=0.000000D+00  E= 1.441261D-01

 Vector   24  Occ=0.000000D+00  E= 1.606013D-01

 Vector   25  Occ=0.000000D+00  E= 1.816288D-01

 Vector   26  Occ=0.000000D+00  E= 2.075483D-01

 Vector   27  Occ=0.000000D+00  E= 2.175660D-01

 Vector   28  Occ=0.000000D+00  E= 2.345529D-01

 Vector   29  Occ=0.000000D+00  E= 2.503392D-01

 Vector   30  Occ=0.000000D+00  E= 2.587042D-01

 Vector   31  Occ=0.000000D+00  E= 2.619136D-01

 Vector   32  Occ=0.000000D+00  E= 2.733748D-01

 Vector   33  Occ=0.000000D+00  E= 3.159460D-01

 Vector   34  Occ=0.000000D+00  E= 3.304527D-01

 Vector   35  Occ=0.000000D+00  E= 3.916709D-01

 Vector   36  Occ=0.000000D+00  E= 4.319727D-01

 Vector   37  Occ=0.000000D+00  E= 4.336046D-01

 Vector   38  Occ=0.000000D+00  E= 4.470335D-01

 Vector   39  Occ=0.000000D+00  E= 4.543475D-01

 Vector   40  Occ=0.000000D+00  E= 4.807835D-01

 Vector   41  Occ=0.000000D+00  E= 4.888974D-01

 Vector   42  Occ=0.000000D+00  E= 4.923623D-01

 Vector   43  Occ=0.000000D+00  E= 4.992039D-01

 Vector   44  Occ=0.000000D+00  E= 5.052826D-01

     Multipole analysis of the density
     ---------------------------------

     L   x y z        total         alpha         beta         nuclear
     -   - - -        -----         -----         ----         -------
     0   0 0 0     -0.000000    -10.000000     -9.000000     19.000000

     1   1 0 0     -0.695494     -0.492139     -0.203355     -0.000000
     1   0 1 0      0.557256      0.330026      0.227230     -0.000000
     1   0 0 1     -0.000917     -0.000899     -0.000017      0.000000

     2   2 0 0    -11.216726    -64.638810    -57.256058    110.678141
     2   1 1 0      1.888191      1.073743      0.814388      0.000060
     2   1 0 1      0.001985      0.000892      0.001311     -0.000218
     2   0 2 0     -9.943486     -9.555488     -9.163378      8.775380
     2   0 1 1      0.005359      0.000739      0.004608      0.000012

 Total times  cpu:      116.7s     wall:      120.5s
