 Output coordinates in angstroms (scale by  1.889725989 to convert to a.u.)

  No.       Tag          Charge          X              Y              Z
 ---- ---------------- ---------- -------------- -------------- --------------
    1 H                    1.0000     0.00000000     0.00000000    -0.86028600
    2 O                    8.0000     0.00000000     0.00000000     0.32902400
    3 H                    1.0000     0.00000000     0.00000000    -1.77190600

         Total DFT energy =      -76.259825802479

                    DFT Final Alpha Molecular Orbital Analysis
                    ------------------------------------------

 Vector    1  Occ=1.000000D+00  E=-1.906252D+01

 Vector    2  Occ=1.000000D+00  E=-9.947560D-01

 Vector    3  Occ=1.000000D+00  E=-5.408257D-01

 Vector    4  Occ=1.000000D+00  E=-4.512256D-01

 Vector    5  Occ=1.000000D+00  E=-3.670912D-01

 Vector    6  Occ=1.000000D+00  E=-3.463378D-01

 Vector    7  Occ=0.000000D+00  E= 1.302921D-02

 Vector    8  Occ=0.000000D+00  E= 2.224221D-02

 Vector    9  Occ=0.000000D+00  E= 8.859137D-02

 Vector   10  Occ=0.000000D+00  E= 9.610880D-02

 Vector   11  Occ=0.000000D+00  E= 1.332677D-01

 Vector   12  Occ=0.000000D+00  E= 1.613185D-01

 Vector   13  Occ=0.000000D+00  E= 1.991762D-01

 Vector   14  Occ=0.000000D+00  E= 2.026434D-01

 Vector   15  Occ=0.000000D+00  E= 2.226050D-01

 Vector   16  Occ=0.000000D+00  E= 3.221911D-01

 Vector   17  Occ=0.000000D+00  E= 4.268147D-01

 Vector   18  Occ=0.000000D+00  E= 4.293686D-01

 Vector   19  Occ=0.000000D+00  E= 4.393949D-01

 Vector   20  Occ=0.000000D+00  E= 6.364083D-01

 Vector    1  Occ=1.000000D+00  E=-1.902504D+01

 Vector    2  Occ=1.000000D+00  E=-9.106953D-01

 Vector    3  Occ=1.000000D+00  E=-4.907895D-01

 Vector    4  Occ=1.000000D+00  E=-3.511126D-01

 Vector    5  Occ=0.000000D+00  E=-3.020270D-01

 Vector    6  Occ=0.000000D+00  E=-2.555620D-01

 Vector    7  Occ=0.000000D+00  E= 3.229824D-02

 Vector    8  Occ=0.000000D+00  E= 3.579916D-02

 Vector    9  Occ=0.000000D+00  E= 1.069834D-01

 Vector   10  Occ=0.000000D+00  E= 1.168567D-01

 Vector   11  Occ=0.000000D+00  E= 1.558114D-01

 Vector   12  Occ=0.000000D+00  E= 1.740252D-01

 Vector   13  Occ=0.000000D+00  E= 2.126268D-01

 Vector   14  Occ=0.000000D+00  E= 2.189221D-01

 Vector   15  Occ=0.000000D+00  E= 2.380099D-01

 Vector   16  Occ=0.000000D+00  E= 3.565897D-01

 Vector   17  Occ=0.000000D+00  E= 4.423052D-01

 Vector   18  Occ=0.000000D+00  E= 4.510605D-01

 Vector   19  Occ=0.000000D+00  E= 4.521919D-01

 Vector   20  Occ=0.000000D+00  E= 6.576866D-01

     Multipole analysis of the density
     ---------------------------------

     L   x y z        total         alpha         beta         nuclear
     -   - - -        -----         -----         ----         -------
     0   0 0 0     -0.000000     -6.000000     -4.000000     10.000000

     1   1 0 0      0.000000      0.000000      0.000000      0.000000
     1   0 1 0      0.000000      0.000000      0.000000      0.000000
     1   0 0 1     -0.539040      0.221498     -0.760538      0.000000

     2   2 0 0     -5.884826     -3.530078     -2.354748      0.000000
     2   1 1 0      0.456281      0.021949      0.434332      0.000000
     2   1 0 1     -0.000000     -0.000000      0.000000      0.000000
     2   0 2 0     -5.451162     -3.509218     -1.941944      0.000000
     2   0 1 1      0.000000     -0.000000      0.000000      0.000000

 Total times  cpu:        9.1s     wall:        9.5s
