 Output coordinates in angstroms (scale by  1.889725989 to convert to a.u.)

  No.       Tag          Charge          X              Y              Z
 ---- ---------------- ---------- -------------- -------------- --------------
    1 H                    1.0000     1.26210000    -0.22009684     0.00000000
    2 S                   16.0000     0.00000000     0.22315316     0.00000000
    3 H                    1.0000    -0.50058000    -1.11544684     0.00000000
    4 H                    1.0000    -0.76152000    -2.23490684     0.00000000

         Total DFT energy =     -399.960338770027

                    DFT Final Alpha Molecular Orbital Analysis
                    ------------------------------------------

 Vector    1  Occ=1.000000D+00  E=-8.844340D+01

 Vector    2  Occ=1.000000D+00  E=-7.842952D+00

 Vector    3  Occ=1.000000D+00  E=-5.827472D+00

 Vector    4  Occ=1.000000D+00  E=-5.823423D+00

 Vector    5  Occ=1.000000D+00  E=-5.815518D+00

 Vector    6  Occ=1.000000D+00  E=-7.516211D-01

 Vector    7  Occ=1.000000D+00  E=-4.896239D-01

 Vector    8  Occ=1.000000D+00  E=-4.189052D-01

 Vector    9  Occ=1.000000D+00  E=-3.015782D-01

 Vector   10  Occ=1.000000D+00  E=-2.962914D-01

 Vector   11  Occ=0.000000D+00  E=-7.182671D-02

 Vector   12  Occ=0.000000D+00  E=-1.687991D-02

 Vector   13  Occ=0.000000D+00  E= 8.723660D-03

 Vector   14  Occ=0.000000D+00  E= 2.259593D-02

 Vector   15  Occ=0.000000D+00  E= 3.546513D-02

 Vector   16  Occ=0.000000D+00  E= 4.463738D-02

 Vector   17  Occ=0.000000D+00  E= 5.976687D-02

 Vector   18  Occ=0.000000D+00  E= 7.065082D-02

 Vector   19  Occ=0.000000D+00  E= 7.378191D-02

 Vector   20  Occ=0.000000D+00  E= 9.243810D-02

 Vector   21  Occ=0.000000D+00  E= 1.014840D-01

 Vector   22  Occ=0.000000D+00  E= 1.223080D-01

 Vector   23  Occ=0.000000D+00  E= 2.112382D-01

 Vector   24  Occ=0.000000D+00  E= 2.319383D-01

 Vector   25  Occ=0.000000D+00  E= 2.360252D-01

 Vector   26  Occ=0.000000D+00  E= 2.452621D-01

 Vector   27  Occ=0.000000D+00  E= 2.756099D-01

 Vector   28  Occ=0.000000D+00  E= 2.806101D-01

 Vector   29  Occ=0.000000D+00  E= 2.950453D-01

 Vector   30  Occ=0.000000D+00  E= 3.492934D-01

 Vector   31  Occ=0.000000D+00  E= 3.889898D-01

 Vector   32  Occ=0.000000D+00  E= 4.084755D-01

 Vector   33  Occ=0.000000D+00  E= 4.199477D-01

 Vector   34  Occ=0.000000D+00  E= 4.527424D-01

 Vector   35  Occ=0.000000D+00  E= 4.827784D-01

 Vector   36  Occ=0.000000D+00  E= 5.140041D-01

 Vector    1  Occ=1.000000D+00  E=-8.844086D+01

 Vector    2  Occ=1.000000D+00  E=-7.840911D+00

 Vector    3  Occ=1.000000D+00  E=-5.822695D+00

 Vector    4  Occ=1.000000D+00  E=-5.820345D+00

 Vector    5  Occ=1.000000D+00  E=-5.814275D+00

 Vector    6  Occ=1.000000D+00  E=-7.383249D-01

 Vector    7  Occ=1.000000D+00  E=-4.767489D-01

 Vector    8  Occ=1.000000D+00  E=-4.101221D-01

 Vector    9  Occ=1.000000D+00  E=-2.987117D-01

 Vector   10  Occ=0.000000D+00  E=-2.387773D-01

 Vector   11  Occ=0.000000D+00  E=-6.591533D-02

 Vector   12  Occ=0.000000D+00  E=-8.689766D-03

 Vector   13  Occ=0.000000D+00  E= 1.436190D-02

 Vector   14  Occ=0.000000D+00  E= 2.912726D-02

 Vector   15  Occ=0.000000D+00  E= 3.947765D-02

 Vector   16  Occ=0.000000D+00  E= 5.352906D-02

 Vector   17  Occ=0.000000D+00  E= 6.924019D-02

 Vector   18  Occ=0.000000D+00  E= 7.580657D-02

 Vector   19  Occ=0.000000D+00  E= 8.486473D-02

 Vector   20  Occ=0.000000D+00  E= 9.830807D-02

 Vector   21  Occ=0.000000D+00  E= 1.013341D-01

 Vector   22  Occ=0.000000D+00  E= 1.295034D-01

 Vector   23  Occ=0.000000D+00  E= 2.254495D-01

 Vector   24  Occ=0.000000D+00  E= 2.410612D-01

 Vector   25  Occ=0.000000D+00  E= 2.470027D-01

 Vector   26  Occ=0.000000D+00  E= 2.534226D-01

 Vector   27  Occ=0.000000D+00  E= 2.804245D-01

 Vector   28  Occ=0.000000D+00  E= 2.861342D-01

 Vector   29  Occ=0.000000D+00  E= 3.206617D-01

 Vector   30  Occ=0.000000D+00  E= 3.555786D-01

 Vector   31  Occ=0.000000D+00  E= 4.052846D-01

 Vector   32  Occ=0.000000D+00  E= 4.125943D-01

 Vector   33  Occ=0.000000D+00  E= 4.199470D-01

 Vector   34  Occ=0.000000D+00  E= 4.592362D-01

 Vector   35  Occ=0.000000D+00  E= 4.880514D-01

 Vector   36  Occ=0.000000D+00  E= 5.165095D-01

     Multipole analysis of the density
     ---------------------------------

     L   x y z        total         alpha         beta         nuclear
     -   - - -        -----         -----         ----         -------
     0   0 0 0     -0.000000    -10.000000     -9.000000     19.000000

     1   1 0 0      0.205612      0.526708     -0.321096      0.000000
     1   0 1 0     -0.307067      1.091286     -1.398353      0.000000
     1   0 0 1      0.000000      0.000000      0.000000      0.000000

     2   2 0 0    -10.708326    -10.886252     -8.476153      8.654080
     2   1 1 0      0.203191     -5.694470     -1.182019      7.079679
     2   1 0 1      0.000000      0.000000      0.000000      0.000000
     2   0 2 0    -11.494293    -25.410313    -11.382222     25.298242
     2   0 1 1      0.000000      0.000000      0.000000      0.000000

 Total times  cpu:       29.7s     wall:       30.3s
