 Output coordinates in angstroms (scale by  1.889725989 to convert to a.u.)

  No.       Tag          Charge          X              Y              Z
 ---- ---------------- ---------- -------------- -------------- --------------
    1 C                    6.0000     0.00000000     0.00000000     0.00000000
    2 H                    1.0000     0.00000000     0.00000000     1.07732000
    3 H                    1.0000     0.93298000     0.00000000    -0.53866000
    4 H                    1.0000    -0.93298000     0.00000000    -0.53866000

         Total DFT energy =      -39.863401378007

                    DFT Final Alpha Molecular Orbital Analysis
                    ------------------------------------------

 Vector    1  Occ=1.000000D+00  E=-9.999318D+00

 Vector   23  Occ=0.000000D+00  E= 5.101925D-01

 Vector   24  Occ=0.000000D+00  E= 5.251651D-01

 Vector   25  Occ=0.000000D+00  E= 5.365062D-01

 Vector   26  Occ=0.000000D+00  E= 5.365078D-01

 Vector   27  Occ=0.000000D+00  E= 5.659288D-01

 Vector   28  Occ=0.000000D+00  E= 5.659296D-01

 Vector   29  Occ=0.000000D+00  E= 6.147887D-01

 Vector   30  Occ=0.000000D+00  E= 6.767477D-01

 Vector   31  Occ=0.000000D+00  E= 6.767479D-01

 Vector   32  Occ=0.000000D+00  E= 7.892457D-01

 Vector   33  Occ=0.000000D+00  E= 7.892482D-01

 Vector   34  Occ=0.000000D+00  E= 8.688636D-01

 Vector   35  Occ=0.000000D+00  E= 8.951072D-01

 Vector   36  Occ=0.000000D+00  E= 8.951076D-01

 Vector   37  Occ=0.000000D+00  E= 1.274155D+00

 Vector   38  Occ=0.000000D+00  E= 1.420209D+00

 Vector   39  Occ=0.000000D+00  E= 1.420212D+00

 Vector   40  Occ=0.000000D+00  E= 1.603050D+00

 Vector   41  Occ=0.000000D+00  E= 1.603058D+00

 Vector   42  Occ=0.000000D+00  E= 1.733063D+00

 Vector   43  Occ=0.000000D+00  E= 1.799146D+00

 Vector   44  Occ=0.000000D+00  E= 1.886913D+00

 Vector   45  Occ=0.000000D+00  E= 2.121725D+00

 Vector   46  Occ=0.000000D+00  E= 2.121734D+00

 Vector   47  Occ=0.000000D+00  E= 2.143433D+00

 Vector   48  Occ=0.000000D+00  E= 2.143434D+00

 Vector   49  Occ=0.000000D+00  E= 2.209549D+00

 Vector   50  Occ=0.000000D+00  E= 2.411665D+00

 Vector   51  Occ=0.000000D+00  E= 2.411667D+00

 Vector   52  Occ=0.000000D+00  E= 2.678513D+00

 Vector   53  Occ=0.000000D+00  E= 2.678523D+00

 Vector   54  Occ=0.000000D+00  E= 2.705325D+00

 Vector   55  Occ=0.000000D+00  E= 2.773274D+00

 Vector   56  Occ=0.000000D+00  E= 2.798313D+00

 Vector   57  Occ=0.000000D+00  E= 2.798316D+00

 Vector   58  Occ=0.000000D+00  E= 2.902630D+00

 Vector   59  Occ=0.000000D+00  E= 2.902632D+00

 Vector   60  Occ=0.000000D+00  E= 3.052122D+00

 Vector   61  Occ=0.000000D+00  E= 3.240310D+00

 Vector   62  Occ=0.000000D+00  E= 3.261266D+00

 Vector   63  Occ=0.000000D+00  E= 3.426339D+00

 Vector   64  Occ=0.000000D+00  E= 3.544313D+00

 Vector   65  Occ=0.000000D+00  E= 3.544319D+00

 Vector   66  Occ=0.000000D+00  E= 3.659633D+00

 Vector   67  Occ=0.000000D+00  E= 3.837554D+00

 Vector   68  Occ=0.000000D+00  E= 3.837566D+00

 Vector   69  Occ=0.000000D+00  E= 4.398950D+00

 Vector   70  Occ=0.000000D+00  E= 4.398953D+00

 Vector   71  Occ=0.000000D+00  E= 4.566011D+00

 Vector   72  Occ=0.000000D+00  E= 4.634195D+00

 Vector   73  Occ=0.000000D+00  E= 4.634196D+00

 Vector   74  Occ=0.000000D+00  E= 4.642594D+00

 Vector   75  Occ=0.000000D+00  E= 4.848399D+00

 Vector   76  Occ=0.000000D+00  E= 4.848407D+00

 Vector   77  Occ=0.000000D+00  E= 4.850765D+00

 Vector   78  Occ=0.000000D+00  E= 4.850774D+00

 Vector   79  Occ=0.000000D+00  E= 5.110694D+00

 Vector   80  Occ=0.000000D+00  E= 5.748083D+00

 Vector   81  Occ=0.000000D+00  E= 7.250466D+00

 Vector   82  Occ=0.000000D+00  E= 7.250467D+00

 Vector   83  Occ=0.000000D+00  E= 7.258402D+00

 Vector   84  Occ=0.000000D+00  E= 7.258410D+00

 Vector   85  Occ=0.000000D+00  E= 7.582654D+00

 Vector   86  Occ=0.000000D+00  E= 8.230840D+00

 Vector   87  Occ=0.000000D+00  E= 8.535209D+00

 Vector   88  Occ=0.000000D+00  E= 8.535247D+00

 Vector   89  Occ=0.000000D+00  E= 8.767280D+00

 Vector   90  Occ=0.000000D+00  E= 8.904152D+00

 Vector   91  Occ=0.000000D+00  E= 8.904173D+00

 Vector   92  Occ=0.000000D+00  E= 8.914427D+00

 Vector   93  Occ=0.000000D+00  E= 8.914447D+00

 Vector   94  Occ=0.000000D+00  E= 9.148504D+00

 Vector   95  Occ=0.000000D+00  E= 9.150583D+00

 Vector   96  Occ=0.000000D+00  E= 9.758011D+00

 Vector   97  Occ=0.000000D+00  E= 9.758013D+00

 Vector   98  Occ=0.000000D+00  E= 9.875975D+00

 Vector   99  Occ=0.000000D+00  E= 1.051548D+01

 Vector  100  Occ=0.000000D+00  E= 1.060424D+01

 Vector  101  Occ=0.000000D+00  E= 1.060424D+01

 Vector  102  Occ=0.000000D+00  E= 2.916786D+01

     Multipole analysis of the density
     ---------------------------------

     L   x y z        total         alpha         beta         nuclear
     -   - - -        -----         -----         ----         -------
     0   0 0 0     -0.000000     -5.000000     -4.000000      9.000000

     1   1 0 0      0.000000      0.000000      0.000000      0.000000
     1   0 1 0     -0.000000     -0.000000      0.000000      0.000000
     1   0 0 1      0.000000      0.000001     -0.000001      0.000000

     2   2 0 0     -5.400725     -6.149677     -5.467925      6.216878
     2   1 1 0      0.000000      0.000000      0.000000      0.000000
     2   1 0 1     -0.000000     -0.000000     -0.000000      0.000000
     2   0 2 0     -6.770026     -4.741481     -2.028545      0.000000
     2   0 1 1     -0.000000     -0.000000     -0.000000      0.000000

 Total times  cpu:        2.6s     wall:        4.6s
