 Output coordinates in angstroms (scale by  1.889725989 to convert to a.u.)

  No.       Tag          Charge          X              Y              Z
 ---- ---------------- ---------- -------------- -------------- --------------
    1 C                    6.0000     0.00000100     0.00000000    -0.00000000
    2 H                    1.0000     0.00000100     0.00000000     1.08744000
    3 H                    1.0000     1.02525100     0.00000000    -0.36248000
    4 H                    1.0000    -0.51262900     0.88789000    -0.36248000
    5 H                    1.0000    -0.51262900    -0.88789000    -0.36248000

         Total DFT energy =      -40.540218100286

                       DFT Final Molecular Orbital Analysis
                       ------------------------------------

 Vector    1  Occ=2.000000D+00  E=-9.967865D+00

 Vector   42  Occ=0.000000D+00  E= 9.835745D-01

 Vector   43  Occ=0.000000D+00  E= 1.296482D+00

 Vector   44  Occ=0.000000D+00  E= 1.351506D+00

 Vector   45  Occ=0.000000D+00  E= 1.351506D+00

 Vector   46  Occ=0.000000D+00  E= 1.688413D+00

 Vector   47  Occ=0.000000D+00  E= 1.688415D+00

 Vector   48  Occ=0.000000D+00  E= 1.688416D+00

 Vector   49  Occ=0.000000D+00  E= 1.766311D+00

 Vector   50  Occ=0.000000D+00  E= 1.766311D+00

 Vector   51  Occ=0.000000D+00  E= 1.766312D+00

 Vector   52  Occ=0.000000D+00  E= 2.076719D+00

 Vector   53  Occ=0.000000D+00  E= 2.076721D+00

 Vector   54  Occ=0.000000D+00  E= 2.076723D+00

 Vector   55  Occ=0.000000D+00  E= 2.299894D+00

 Vector   56  Occ=0.000000D+00  E= 2.424971D+00

 Vector   57  Occ=0.000000D+00  E= 2.424976D+00

 Vector   58  Occ=0.000000D+00  E= 2.424978D+00

 Vector   59  Occ=0.000000D+00  E= 2.429723D+00

 Vector   60  Occ=0.000000D+00  E= 2.429725D+00

 Vector   61  Occ=0.000000D+00  E= 2.548014D+00

 Vector   62  Occ=0.000000D+00  E= 2.548016D+00

 Vector   63  Occ=0.000000D+00  E= 2.548017D+00

 Vector   64  Occ=0.000000D+00  E= 2.842478D+00

 Vector   65  Occ=0.000000D+00  E= 2.933762D+00

 Vector   66  Occ=0.000000D+00  E= 2.933766D+00

 Vector   67  Occ=0.000000D+00  E= 2.933766D+00

 Vector   68  Occ=0.000000D+00  E= 2.988772D+00

 Vector   69  Occ=0.000000D+00  E= 2.988773D+00

 Vector   70  Occ=0.000000D+00  E= 2.988777D+00

 Vector   71  Occ=0.000000D+00  E= 3.212395D+00

 Vector   72  Occ=0.000000D+00  E= 3.212398D+00

 Vector   73  Occ=0.000000D+00  E= 3.363730D+00

 Vector   74  Occ=0.000000D+00  E= 3.562298D+00

 Vector   75  Occ=0.000000D+00  E= 3.562303D+00

 Vector   76  Occ=0.000000D+00  E= 3.562307D+00

 Vector   77  Occ=0.000000D+00  E= 3.954637D+00

 Vector   78  Occ=0.000000D+00  E= 3.954639D+00

 Vector   79  Occ=0.000000D+00  E= 3.954642D+00

 Vector   80  Occ=0.000000D+00  E= 4.228568D+00

 Vector   81  Occ=0.000000D+00  E= 4.228568D+00

 Vector   82  Occ=0.000000D+00  E= 4.228573D+00

 Vector   83  Occ=0.000000D+00  E= 4.610801D+00

 Vector   84  Occ=0.000000D+00  E= 4.635521D+00

 Vector   85  Occ=0.000000D+00  E= 4.635530D+00

 Vector   86  Occ=0.000000D+00  E= 4.635530D+00

 Vector   87  Occ=0.000000D+00  E= 4.950586D+00

 Vector   88  Occ=0.000000D+00  E= 4.950598D+00

 Vector   89  Occ=0.000000D+00  E= 4.950599D+00

 Vector   90  Occ=0.000000D+00  E= 5.030398D+00

 Vector   91  Occ=0.000000D+00  E= 5.030404D+00

 Vector   92  Occ=0.000000D+00  E= 5.126082D+00

 Vector   93  Occ=0.000000D+00  E= 5.146038D+00

 Vector   94  Occ=0.000000D+00  E= 5.146041D+00

 Vector   95  Occ=0.000000D+00  E= 5.146049D+00

 Vector   96  Occ=0.000000D+00  E= 7.253659D+00

 Vector   97  Occ=0.000000D+00  E= 7.253664D+00

 Vector   98  Occ=0.000000D+00  E= 7.253671D+00

 Vector   99  Occ=0.000000D+00  E= 7.519953D+00

 Vector  100  Occ=0.000000D+00  E= 7.519961D+00

 Vector  101  Occ=0.000000D+00  E= 7.807318D+00

 Vector  102  Occ=0.000000D+00  E= 8.589794D+00

 Vector  103  Occ=0.000000D+00  E= 8.589795D+00

 Vector  104  Occ=0.000000D+00  E= 8.589800D+00

 Vector  105  Occ=0.000000D+00  E= 8.719814D+00

 Vector  106  Occ=0.000000D+00  E= 8.719815D+00

 Vector  107  Occ=0.000000D+00  E= 8.719818D+00

 Vector  108  Occ=0.000000D+00  E= 9.059636D+00

 Vector  109  Occ=0.000000D+00  E= 9.059639D+00

 Vector  110  Occ=0.000000D+00  E= 9.428775D+00

 Vector  111  Occ=0.000000D+00  E= 9.428785D+00

 Vector  112  Occ=0.000000D+00  E= 9.428786D+00

 Vector  113  Occ=0.000000D+00  E= 9.487481D+00

 Vector  114  Occ=0.000000D+00  E= 1.024761D+01

 Vector  115  Occ=0.000000D+00  E= 1.024765D+01

 Vector  116  Occ=0.000000D+00  E= 1.024765D+01

 Vector  117  Occ=0.000000D+00  E= 1.044741D+01

 Vector  118  Occ=0.000000D+00  E= 1.044742D+01

 Vector  119  Occ=0.000000D+00  E= 1.044743D+01

 Vector  120  Occ=0.000000D+00  E= 1.094122D+01

 Vector  121  Occ=0.000000D+00  E= 2.915572D+01

     Multipole analysis of the density
     ---------------------------------

     L   x y z        total         alpha         beta         nuclear
     -   - - -        -----         -----         ----         -------
     0   0 0 0     -0.000000     -5.000000     -5.000000     10.000000

     1   1 0 0     -0.000001     -0.000000     -0.000000      0.000000
     1   0 1 0      0.000000      0.000000      0.000000      0.000000
     1   0 0 1      0.000001      0.000000      0.000000      0.000000

     2   2 0 0     -6.260511     -5.945534     -5.945534      5.630556
     2   1 1 0     -0.000000     -0.000000     -0.000000      0.000000
     2   1 0 1      0.000004     -0.000005     -0.000005      0.000013
     2   0 2 0     -6.260532     -5.945510     -5.945510      5.630487
     2   0 1 1     -0.000000     -0.000000     -0.000000      0.000000

 Total times  cpu:        3.6s     wall:        4.9s
