 Output coordinates in angstroms (scale by  1.889725989 to convert to a.u.)

  No.       Tag          Charge          X              Y              Z
 ---- ---------------- ---------- -------------- -------------- --------------
    1 H                    1.0000     0.00000000     0.00000000     0.00000000

         Total DFT energy =       -0.500050712294

                    DFT Final Alpha Molecular Orbital Analysis
                    ------------------------------------------

 Vector    1  Occ=1.000000D+00  E=-2.856986D-01

 Vector    2  Occ=0.000000D+00  E= 2.947675D-02

 Vector    3  Occ=0.000000D+00  E= 2.315747D-01

 Vector    4  Occ=0.000000D+00  E= 2.315747D-01

 Vector    5  Occ=0.000000D+00  E= 2.315747D-01

 Vector    6  Occ=0.000000D+00  E= 3.529832D-01

 Vector    7  Occ=0.000000D+00  E= 1.672114D+00

 Vector    8  Occ=0.000000D+00  E= 1.672114D+00

 Vector    9  Occ=0.000000D+00  E= 1.672114D+00

 Vector   10  Occ=0.000000D+00  E= 1.699522D+00

 Vector   11  Occ=0.000000D+00  E= 3.001769D+00

 Vector   12  Occ=0.000000D+00  E= 3.001769D+00

 Vector   13  Occ=0.000000D+00  E= 3.001769D+00

 Vector   14  Occ=0.000000D+00  E= 3.001769D+00

 Vector   15  Occ=0.000000D+00  E= 3.001769D+00

 Vector   16  Occ=0.000000D+00  E= 4.345668D+00

 Vector   17  Occ=0.000000D+00  E= 8.641921D+00

 Vector   18  Occ=0.000000D+00  E= 8.641921D+00

 Vector   19  Occ=0.000000D+00  E= 8.641921D+00

 Vector    1  Occ=0.000000D+00  E=-4.998180D-01

 Vector    2  Occ=0.000000D+00  E=-1.188963D-01

 Vector    3  Occ=0.000000D+00  E= 6.725206D-03

 Vector    4  Occ=0.000000D+00  E= 6.725206D-03

 Vector    5  Occ=0.000000D+00  E= 6.725206D-03

 Vector    6  Occ=0.000000D+00  E= 1.655019D-01

 Vector    7  Occ=0.000000D+00  E= 1.379600D+00

 Vector    8  Occ=0.000000D+00  E= 1.379600D+00

 Vector    9  Occ=0.000000D+00  E= 1.379600D+00

 Vector   10  Occ=0.000000D+00  E= 1.437489D+00

 Vector   11  Occ=0.000000D+00  E= 2.648923D+00

 Vector   12  Occ=0.000000D+00  E= 2.648923D+00

 Vector   13  Occ=0.000000D+00  E= 2.648923D+00

 Vector   14  Occ=0.000000D+00  E= 2.648923D+00

 Vector   15  Occ=0.000000D+00  E= 2.648923D+00

 Vector   16  Occ=0.000000D+00  E= 3.942179D+00

 Vector   17  Occ=0.000000D+00  E= 7.747143D+00

 Vector   18  Occ=0.000000D+00  E= 7.747143D+00

 Vector   19  Occ=0.000000D+00  E= 7.747143D+00

 Total times  cpu:        1.8s     wall:        2.9s
