 Output coordinates in angstroms (scale by  1.889725989 to convert to a.u.)

  No.       Tag          Charge          X              Y              Z
 ---- ---------------- ---------- -------------- -------------- --------------
    1 H                    1.0000     0.00000000     0.00000000    -0.37094000
    2 H                    1.0000     0.00000000     0.00000000     0.37094000

         Total DFT energy =       -1.179883866441

                       DFT Final Molecular Orbital Analysis
                       ------------------------------------

 Vector    1  Occ=2.000000D+00  E=-3.939193D-01

 Vector    2  Occ=0.000000D+00  E= 1.961735D-02

 Vector    3  Occ=0.000000D+00  E= 3.086867D-02

 Vector    4  Occ=0.000000D+00  E= 1.362574D-01

 Vector    5  Occ=0.000000D+00  E= 2.216669D-01

 Vector    6  Occ=0.000000D+00  E= 2.216669D-01

 Vector    7  Occ=0.000000D+00  E= 3.183522D-01

 Vector    8  Occ=0.000000D+00  E= 4.318332D-01

 Vector    9  Occ=0.000000D+00  E= 4.627667D-01

 Vector   10  Occ=0.000000D+00  E= 4.627667D-01

 Vector   11  Occ=0.000000D+00  E= 4.726983D-01

 Vector   12  Occ=0.000000D+00  E= 9.462457D-01

 Vector   13  Occ=0.000000D+00  E= 1.485159D+00

 Vector   14  Occ=0.000000D+00  E= 1.550565D+00

 Vector   15  Occ=0.000000D+00  E= 1.550565D+00

 Vector   16  Occ=0.000000D+00  E= 1.947726D+00

 Vector   17  Occ=0.000000D+00  E= 2.059449D+00

 Vector   18  Occ=0.000000D+00  E= 2.107347D+00

 Vector   19  Occ=0.000000D+00  E= 2.107347D+00

 Vector   20  Occ=0.000000D+00  E= 2.737597D+00

 Vector   21  Occ=0.000000D+00  E= 2.737597D+00

 Vector   22  Occ=0.000000D+00  E= 3.029058D+00

 Vector   23  Occ=0.000000D+00  E= 3.550243D+00

 Vector   24  Occ=0.000000D+00  E= 3.550243D+00

 Vector   25  Occ=0.000000D+00  E= 3.609397D+00

 Vector   26  Occ=0.000000D+00  E= 3.609398D+00

 Vector   27  Occ=0.000000D+00  E= 4.151617D+00

 Vector   28  Occ=0.000000D+00  E= 4.811039D+00

 Vector   29  Occ=0.000000D+00  E= 4.811039D+00

 Vector   30  Occ=0.000000D+00  E= 4.924920D+00

 Vector   31  Occ=0.000000D+00  E= 5.578176D+00

 Vector   32  Occ=0.000000D+00  E= 8.691481D+00

 Vector   33  Occ=0.000000D+00  E= 8.691481D+00

 Vector   34  Occ=0.000000D+00  E= 8.954108D+00

 Vector   35  Occ=0.000000D+00  E= 8.978725D+00

 Vector   36  Occ=0.000000D+00  E= 8.978725D+00

 Vector   37  Occ=0.000000D+00  E= 1.153520D+01

 Vector   38  Occ=0.000000D+00  E= 1.512695D+01

     Multipole analysis of the density
     ---------------------------------

     L   x y z        total         alpha         beta         nuclear
     -   - - -        -----         -----         ----         -------
     0   0 0 0     -0.000000     -1.000000     -1.000000      2.000000

     1   1 0 0      0.000000      0.000000      0.000000      0.000000
     1   0 1 0      0.000000      0.000000      0.000000      0.000000
     1   0 0 1     -0.000000     -0.000000     -0.000000      0.000000

     2   2 0 0     -1.532010     -0.766005     -0.766005      0.000000
     2   1 1 0     -0.000000     -0.000000     -0.000000      0.000000
     2   1 0 1     -0.000000     -0.000000     -0.000000      0.000000
     2   0 2 0     -1.532010     -0.766005     -0.766005      0.000000
     2   0 1 1     -0.000000     -0.000000     -0.000000      0.000000

 Total times  cpu:        2.2s     wall:        3.4s
