 Output coordinates in angstroms (scale by  1.889725989 to convert to a.u.)

  No.       Tag          Charge          X              Y              Z
 ---- ---------------- ---------- -------------- -------------- --------------
    1 O                    8.0000    -0.09263600     0.00000000    -0.07170400
    2 H                    1.0000    -0.09263600     0.00000000     0.88520600
    3 H                    1.0000     0.83372400     0.00000000    -0.31157400

         Total DFT energy =      -76.465893525707

                       DFT Final Molecular Orbital Analysis
                       ------------------------------------

 Vector    1  Occ=2.000000D+00  E=-1.888738D+01

 Vector    4  Occ=2.000000D+00  E=-3.475826D-01

 Vector    5  Occ=2.000000D+00  E=-2.694034D-01

 Vector    6  Occ=0.000000D+00  E=-2.566845D-02

 Vector    7  Occ=0.000000D+00  E= 2.853023D-02

 Vector    8  Occ=0.000000D+00  E= 1.297921D-01

 Vector    9  Occ=0.000000D+00  E= 1.416582D-01

 Vector   10  Occ=0.000000D+00  E= 1.451581D-01

 Vector   11  Occ=0.000000D+00  E= 1.451992D-01

 Vector   12  Occ=0.000000D+00  E= 1.977644D-01

 Vector   13  Occ=0.000000D+00  E= 2.118945D-01

 Vector   14  Occ=0.000000D+00  E= 3.192887D-01

 Vector   15  Occ=0.000000D+00  E= 3.457967D-01

 Vector   16  Occ=0.000000D+00  E= 3.855372D-01

 Vector   17  Occ=0.000000D+00  E= 4.127776D-01

 Vector   18  Occ=0.000000D+00  E= 4.727552D-01

 Vector   19  Occ=0.000000D+00  E= 5.470525D-01

 Vector   20  Occ=0.000000D+00  E= 6.357077D-01

 Vector   21  Occ=0.000000D+00  E= 7.143063D-01

 Vector   22  Occ=0.000000D+00  E= 8.622481D-01

 Vector   23  Occ=0.000000D+00  E= 9.027684D-01

 Vector   24  Occ=0.000000D+00  E= 9.135967D-01

 Vector   25  Occ=0.000000D+00  E= 9.632164D-01

 Vector   26  Occ=0.000000D+00  E= 9.960700D-01

 Vector   27  Occ=0.000000D+00  E= 1.009702D+00

 Vector   28  Occ=0.000000D+00  E= 1.051206D+00

 Vector   29  Occ=0.000000D+00  E= 1.365061D+00

 Vector   30  Occ=0.000000D+00  E= 1.451262D+00

 Vector   31  Occ=0.000000D+00  E= 1.770980D+00

 Vector   32  Occ=0.000000D+00  E= 1.839848D+00

 Vector   33  Occ=0.000000D+00  E= 1.870431D+00

 Vector   34  Occ=0.000000D+00  E= 1.875140D+00

 Vector   35  Occ=0.000000D+00  E= 1.921753D+00

 Vector   36  Occ=0.000000D+00  E= 2.074927D+00

 Vector   37  Occ=0.000000D+00  E= 2.570418D+00

 Vector   38  Occ=0.000000D+00  E= 2.748071D+00

 Vector   39  Occ=0.000000D+00  E= 2.808294D+00

 Vector   40  Occ=0.000000D+00  E= 2.906743D+00

 Vector   41  Occ=0.000000D+00  E= 2.993429D+00

 Vector   42  Occ=0.000000D+00  E= 3.047821D+00

 Vector   43  Occ=0.000000D+00  E= 3.142762D+00

 Vector   44  Occ=0.000000D+00  E= 3.160033D+00

 Vector   45  Occ=0.000000D+00  E= 3.183014D+00

 Vector   46  Occ=0.000000D+00  E= 3.282344D+00

 Vector   47  Occ=0.000000D+00  E= 3.578977D+00

 Vector   48  Occ=0.000000D+00  E= 3.626296D+00

 Vector   49  Occ=0.000000D+00  E= 3.938436D+00

 Vector   50  Occ=0.000000D+00  E= 4.003776D+00

 Vector   51  Occ=0.000000D+00  E= 4.138176D+00

 Vector   52  Occ=0.000000D+00  E= 4.275755D+00

 Vector   53  Occ=0.000000D+00  E= 4.281931D+00

 Vector   54  Occ=0.000000D+00  E= 4.320226D+00

 Vector   55  Occ=0.000000D+00  E= 4.783610D+00

 Vector   56  Occ=0.000000D+00  E= 4.819734D+00

 Vector   57  Occ=0.000000D+00  E= 4.909855D+00

 Vector   58  Occ=0.000000D+00  E= 5.531209D+00

 Vector   59  Occ=0.000000D+00  E= 5.787566D+00

 Vector   60  Occ=0.000000D+00  E= 5.825624D+00

 Vector   61  Occ=0.000000D+00  E= 6.196282D+00

 Vector   62  Occ=0.000000D+00  E= 6.263195D+00

 Vector   63  Occ=0.000000D+00  E= 6.336349D+00

 Vector   64  Occ=0.000000D+00  E= 6.559941D+00

 Vector   65  Occ=0.000000D+00  E= 6.605561D+00

 Vector   66  Occ=0.000000D+00  E= 6.894932D+00

 Vector   67  Occ=0.000000D+00  E= 7.428622D+00

 Vector   68  Occ=0.000000D+00  E= 8.435910D+00

 Vector   69  Occ=0.000000D+00  E= 8.462518D+00

 Vector   70  Occ=0.000000D+00  E= 8.567117D+00

 Vector   71  Occ=0.000000D+00  E= 8.672320D+00

 Vector   72  Occ=0.000000D+00  E= 9.766083D+00

 Vector   73  Occ=0.000000D+00  E= 9.989886D+00

 Vector   74  Occ=0.000000D+00  E= 1.449283D+01

 Vector   75  Occ=0.000000D+00  E= 1.465109D+01

 Vector   76  Occ=0.000000D+00  E= 1.467551D+01

 Vector   77  Occ=0.000000D+00  E= 1.537893D+01

 Vector   78  Occ=0.000000D+00  E= 1.575208D+01

 Vector   79  Occ=0.000000D+00  E= 1.638944D+01

 Vector   80  Occ=0.000000D+00  E= 1.660873D+01

 Vector   81  Occ=0.000000D+00  E= 1.709195D+01

 Vector   82  Occ=0.000000D+00  E= 1.954352D+01

 Vector   83  Occ=0.000000D+00  E= 6.115562D+01

     Multipole analysis of the density
     ---------------------------------

     L   x y z        total         alpha         beta         nuclear
     -   - - -        -----         -----         ----         -------
     0   0 0 0     -0.000000     -5.000000     -5.000000     10.000000

     1   1 0 0      0.573884      0.286942      0.286942      0.000000
     1   0 1 0     -0.000000     -0.000000     -0.000000      0.000000
     1   0 0 1      0.444210      0.222105      0.222105     -0.000000

     2   2 0 0     -4.243876     -3.500955     -3.500955      2.758035
     2   1 1 0     -0.000000     -0.000000     -0.000000      0.000000
     2   1 0 1     -0.709705      0.160505      0.160505     -1.030715
     2   0 2 0     -5.769815     -2.884907     -2.884907      0.000000
     2   0 1 1     -0.000000     -0.000000     -0.000000      0.000000

 Total times  cpu:        2.1s     wall:        3.4s
