 Output coordinates in angstroms (scale by  1.889725989 to convert to a.u.)

  No.       Tag          Charge          X              Y              Z
 ---- ---------------- ---------- -------------- -------------- --------------
    1 S                   16.0000     0.00000000     0.00000000     0.10251889
    2 H                    1.0000     0.00000000     0.96625000    -0.82015111
    3 H                    1.0000     0.00000000    -0.96625000    -0.82015111

         Total DFT energy =     -399.433793019472

                       DFT Final Molecular Orbital Analysis
                       ------------------------------------

 Vector    1  Occ=2.000000D+00  E=-8.835733D+01

 Vector   12  Occ=0.000000D+00  E= 3.469318D-02

 Vector   13  Occ=0.000000D+00  E= 4.511443D-02

 Vector   14  Occ=0.000000D+00  E= 5.113413D-02

 Vector   15  Occ=0.000000D+00  E= 7.132893D-02

 Vector   16  Occ=0.000000D+00  E= 1.007347D-01

 Vector   17  Occ=0.000000D+00  E= 1.035733D-01

 Vector   18  Occ=0.000000D+00  E= 1.514479D-01

 Vector   19  Occ=0.000000D+00  E= 1.781815D-01

 Vector   20  Occ=0.000000D+00  E= 1.861760D-01

 Vector   21  Occ=0.000000D+00  E= 2.609241D-01

 Vector   22  Occ=0.000000D+00  E= 2.733588D-01

 Vector   23  Occ=0.000000D+00  E= 2.853797D-01

 Vector   24  Occ=0.000000D+00  E= 3.038440D-01

 Vector   25  Occ=0.000000D+00  E= 3.380867D-01

 Vector   26  Occ=0.000000D+00  E= 4.041030D-01

 Vector   27  Occ=0.000000D+00  E= 4.375975D-01

 Vector   28  Occ=0.000000D+00  E= 4.533205D-01

 Vector   29  Occ=0.000000D+00  E= 4.620964D-01

 Vector   30  Occ=0.000000D+00  E= 4.969403D-01

 Vector   31  Occ=0.000000D+00  E= 5.329486D-01

 Vector   32  Occ=0.000000D+00  E= 5.442000D-01

 Vector   33  Occ=0.000000D+00  E= 7.467392D-01

 Vector   34  Occ=0.000000D+00  E= 7.898286D-01

 Vector   35  Occ=0.000000D+00  E= 9.342320D-01

 Vector   36  Occ=0.000000D+00  E= 9.355152D-01

 Vector   37  Occ=0.000000D+00  E= 9.485148D-01

 Vector   38  Occ=0.000000D+00  E= 9.494460D-01

 Vector   39  Occ=0.000000D+00  E= 9.919335D-01

 Vector   40  Occ=0.000000D+00  E= 1.095460D+00

 Vector   41  Occ=0.000000D+00  E= 1.170442D+00

 Vector   42  Occ=0.000000D+00  E= 1.230039D+00

 Vector   43  Occ=0.000000D+00  E= 1.363405D+00

 Vector   44  Occ=0.000000D+00  E= 1.542179D+00

 Vector   45  Occ=0.000000D+00  E= 1.551502D+00

 Vector   46  Occ=0.000000D+00  E= 1.560098D+00

 Vector   47  Occ=0.000000D+00  E= 1.596500D+00

 Vector   48  Occ=0.000000D+00  E= 1.604294D+00

 Vector   49  Occ=0.000000D+00  E= 1.869201D+00

 Vector   50  Occ=0.000000D+00  E= 1.888501D+00

 Vector   51  Occ=0.000000D+00  E= 1.938728D+00

 Vector   52  Occ=0.000000D+00  E= 1.970437D+00

 Vector   53  Occ=0.000000D+00  E= 2.034671D+00

 Vector   54  Occ=0.000000D+00  E= 2.108068D+00

 Vector   55  Occ=0.000000D+00  E= 2.217651D+00

 Vector   56  Occ=0.000000D+00  E= 2.255154D+00

 Vector   57  Occ=0.000000D+00  E= 2.493673D+00

 Vector   58  Occ=0.000000D+00  E= 2.663485D+00

 Vector   59  Occ=0.000000D+00  E= 3.000447D+00

 Vector   60  Occ=0.000000D+00  E= 3.022504D+00

 Vector   61  Occ=0.000000D+00  E= 3.103449D+00

 Vector   62  Occ=0.000000D+00  E= 3.133050D+00

 Vector   63  Occ=0.000000D+00  E= 3.145856D+00

 Vector   64  Occ=0.000000D+00  E= 3.241572D+00

 Vector   65  Occ=0.000000D+00  E= 3.260355D+00

 Vector   66  Occ=0.000000D+00  E= 3.630249D+00

 Vector   67  Occ=0.000000D+00  E= 3.638208D+00

 Vector   68  Occ=0.000000D+00  E= 3.654613D+00

 Vector   69  Occ=0.000000D+00  E= 3.657615D+00

 Vector   70  Occ=0.000000D+00  E= 3.865445D+00

 Vector   71  Occ=0.000000D+00  E= 4.203298D+00

 Vector   72  Occ=0.000000D+00  E= 4.245912D+00

 Vector   73  Occ=0.000000D+00  E= 4.572830D+00

 Vector   74  Occ=0.000000D+00  E= 4.632208D+00

 Vector   75  Occ=0.000000D+00  E= 4.826499D+00

 Vector   76  Occ=0.000000D+00  E= 4.854001D+00

 Vector   77  Occ=0.000000D+00  E= 5.214473D+00

 Vector   78  Occ=0.000000D+00  E= 5.349094D+00

 Vector   79  Occ=0.000000D+00  E= 6.226809D+00

 Vector   80  Occ=0.000000D+00  E= 8.612577D+00

 Vector   81  Occ=0.000000D+00  E= 8.612688D+00

 Vector   82  Occ=0.000000D+00  E= 8.647960D+00

 Vector   83  Occ=0.000000D+00  E= 8.718771D+00

 Vector   84  Occ=0.000000D+00  E= 9.356901D+00

 Vector   85  Occ=0.000000D+00  E= 9.486901D+00

 Vector   86  Occ=0.000000D+00  E= 1.022540D+01

 Vector   87  Occ=0.000000D+00  E= 1.847483D+01

 Vector   88  Occ=0.000000D+00  E= 1.867476D+01

 Vector   89  Occ=0.000000D+00  E= 1.869228D+01

 Vector   90  Occ=0.000000D+00  E= 2.492041D+01

 Vector   91  Occ=0.000000D+00  E= 2.192651D+02

     Multipole analysis of the density
     ---------------------------------

     L   x y z        total         alpha         beta         nuclear
     -   - - -        -----         -----         ----         -------
     0   0 0 0     -0.000000     -9.000000     -9.000000     18.000000

     1   1 0 0      0.000000      0.000000      0.000000      0.000000
     1   0 1 0     -0.000000     -0.000000     -0.000000      0.000000
     1   0 0 1     -0.387895     -0.193948     -0.193948      0.000000

     2   2 0 0    -12.364796     -6.182398     -6.182398      0.000000
     2   1 1 0      0.000000      0.000000      0.000000      0.000000
     2   1 0 1     -0.000000     -0.000000     -0.000000      0.000000
     2   0 2 0     -9.155316     -7.911743     -7.911743      6.668170
     2   0 1 1     -0.000000     -0.000000     -0.000000      0.000000

 Total times  cpu:        1.8s     wall:        2.9s
