 Output coordinates in angstroms (scale by  1.889725989 to convert to a.u.)

  No.       Tag          Charge          X              Y              Z
 ---- ---------------- ---------- -------------- -------------- --------------
    1 F                    9.0000     0.00000000     0.00000000    -0.09153800
    2 H                    1.0000     0.00000000     0.00000000     0.82384200

         Total DFT energy =     -100.489415551545

                       DFT Final Molecular Orbital Analysis
                       ------------------------------------

 Vector    1  Occ=2.000000D+00  E=-2.440403D+01

 Vector    2  Occ=2.000000D+00  E=-1.131046D+00

 Vector    3  Occ=2.000000D+00  E=-5.013041D-01

 Vector    4  Occ=2.000000D+00  E=-3.586968D-01

 Vector    5  Occ=2.000000D+00  E=-3.586968D-01

 Vector    6  Occ=0.000000D+00  E=-2.616731D-02

 Vector    7  Occ=0.000000D+00  E= 1.042694D-01

 Vector    8  Occ=0.000000D+00  E= 1.880989D-01

 Vector    9  Occ=0.000000D+00  E= 1.896192D-01

 Vector   10  Occ=0.000000D+00  E= 1.896192D-01

 Vector   11  Occ=0.000000D+00  E= 2.770644D-01

 Vector   12  Occ=0.000000D+00  E= 3.686703D-01

 Vector   13  Occ=0.000000D+00  E= 3.686703D-01

 Vector   14  Occ=0.000000D+00  E= 4.012917D-01

 Vector   15  Occ=0.000000D+00  E= 6.924342D-01

 Vector   16  Occ=0.000000D+00  E= 1.026691D+00

 Vector   17  Occ=0.000000D+00  E= 1.026692D+00

 Vector   18  Occ=0.000000D+00  E= 1.135386D+00

 Vector   19  Occ=0.000000D+00  E= 1.204598D+00

 Vector   20  Occ=0.000000D+00  E= 1.204598D+00

 Vector   21  Occ=0.000000D+00  E= 1.207779D+00

 Vector   22  Occ=0.000000D+00  E= 1.221226D+00

 Vector   23  Occ=0.000000D+00  E= 1.221226D+00

 Vector   24  Occ=0.000000D+00  E= 1.653828D+00

 Vector   25  Occ=0.000000D+00  E= 1.914737D+00

 Vector   26  Occ=0.000000D+00  E= 1.914737D+00

 Vector   27  Occ=0.000000D+00  E= 1.928737D+00

 Vector   28  Occ=0.000000D+00  E= 2.883602D+00

 Vector   29  Occ=0.000000D+00  E= 3.055999D+00

 Vector   30  Occ=0.000000D+00  E= 3.055999D+00

 Vector   31  Occ=0.000000D+00  E= 3.464341D+00

 Vector   32  Occ=0.000000D+00  E= 3.464341D+00

 Vector   33  Occ=0.000000D+00  E= 3.599753D+00

 Vector   34  Occ=0.000000D+00  E= 4.041773D+00

 Vector   35  Occ=0.000000D+00  E= 4.416134D+00

 Vector   36  Occ=0.000000D+00  E= 4.474903D+00

 Vector   37  Occ=0.000000D+00  E= 4.474904D+00

 Vector   38  Occ=0.000000D+00  E= 4.941878D+00

 Vector   39  Occ=0.000000D+00  E= 4.941878D+00

 Vector   40  Occ=0.000000D+00  E= 5.169073D+00

 Vector   41  Occ=0.000000D+00  E= 6.070703D+00

 Vector   42  Occ=0.000000D+00  E= 6.070703D+00

 Vector   43  Occ=0.000000D+00  E= 6.638176D+00

 Vector   44  Occ=0.000000D+00  E= 6.638176D+00

 Vector   45  Occ=0.000000D+00  E= 6.859290D+00

 Vector   46  Occ=0.000000D+00  E= 6.859290D+00

 Vector   47  Occ=0.000000D+00  E= 7.288961D+00

 Vector   48  Occ=0.000000D+00  E= 7.741722D+00

 Vector   49  Occ=0.000000D+00  E= 7.741722D+00

 Vector   50  Occ=0.000000D+00  E= 7.811782D+00

 Vector   51  Occ=0.000000D+00  E= 8.420712D+00

 Vector   52  Occ=0.000000D+00  E= 8.420712D+00

 Vector   53  Occ=0.000000D+00  E= 9.646302D+00

 Vector   54  Occ=0.000000D+00  E= 1.039290D+01

 Vector   55  Occ=0.000000D+00  E= 1.919284D+01

 Vector   56  Occ=0.000000D+00  E= 1.919284D+01

 Vector   57  Occ=0.000000D+00  E= 1.942407D+01

 Vector   58  Occ=0.000000D+00  E= 1.942407D+01

 Vector   59  Occ=0.000000D+00  E= 2.015619D+01

 Vector   60  Occ=0.000000D+00  E= 2.123934D+01

 Vector   61  Occ=0.000000D+00  E= 2.123934D+01

 Vector   62  Occ=0.000000D+00  E= 2.180788D+01

 Vector   63  Occ=0.000000D+00  E= 2.582217D+01

 Vector   64  Occ=0.000000D+00  E= 8.318116D+01

     Multipole analysis of the density
     ---------------------------------

     L   x y z        total         alpha         beta         nuclear
     -   - - -        -----         -----         ----         -------
     0   0 0 0     -0.000000     -5.000000     -5.000000     10.000000

     1   1 0 0      0.000000      0.000000      0.000000      0.000000
     1   0 1 0      0.000000      0.000000      0.000000      0.000000
     1   0 0 1      0.698776      0.349388      0.349388     -0.000000

     2   2 0 0     -4.360684     -2.180342     -2.180342      0.000000
     2   1 1 0     -0.000000     -0.000000     -0.000000      0.000000
     2   1 0 1      0.000000      0.000000      0.000000      0.000000
     2   0 2 0     -4.360684     -2.180342     -2.180342      0.000000
     2   0 1 1      0.000000      0.000000      0.000000      0.000000

 Total times  cpu:        1.7s     wall:        2.5s
