 Output coordinates in angstroms (scale by  1.889725989 to convert to a.u.)

  No.       Tag          Charge          X              Y              Z
 ---- ---------------- ---------- -------------- -------------- --------------
    1 S                   16.0000     0.00000000     0.00000000    -0.07883529
    2 H                    1.0000     0.00000000     0.00000000     1.26136471

         Total DFT energy =     -398.781353383840

                    DFT Final Alpha Molecular Orbital Analysis
                    ------------------------------------------

 Vector    1  Occ=1.000000D+00  E=-8.838402D+01

 Vector   65  Occ=0.000000D+00  E= 8.578127D+00

 Vector   66  Occ=0.000000D+00  E= 9.330247D+00

 Vector   67  Occ=0.000000D+00  E= 1.012430D+01

 Vector   68  Occ=0.000000D+00  E= 1.842519D+01

 Vector   69  Occ=0.000000D+00  E= 1.844593D+01

 Vector   70  Occ=0.000000D+00  E= 1.864092D+01

 Vector   71  Occ=0.000000D+00  E= 2.486341D+01

 Vector   72  Occ=0.000000D+00  E= 2.191916D+02

 Vector    1  Occ=1.000000D+00  E=-8.837876D+01

 Vector    2  Occ=1.000000D+00  E=-7.765179D+00

 Vector    3  Occ=1.000000D+00  E=-5.744278D+00

 Vector    4  Occ=1.000000D+00  E=-5.742183D+00

 Vector    5  Occ=1.000000D+00  E=-5.735031D+00

 Vector    6  Occ=1.000000D+00  E=-6.509472D-01

 Vector    7  Occ=1.000000D+00  E=-3.693116D-01

 Vector    8  Occ=1.000000D+00  E=-2.326412D-01

 Vector    9  Occ=0.000000D+00  E=-2.062220D-01

 Vector   10  Occ=0.000000D+00  E=-1.658541D-02

 Vector   11  Occ=0.000000D+00  E= 3.794187D-02

 Vector   12  Occ=0.000000D+00  E= 4.445054D-02

 Vector   13  Occ=0.000000D+00  E= 5.224709D-02

 Vector   14  Occ=0.000000D+00  E= 5.786412D-02

 Vector   15  Occ=0.000000D+00  E= 1.063364D-01

 Vector   16  Occ=0.000000D+00  E= 1.793452D-01

 Vector   17  Occ=0.000000D+00  E= 1.853302D-01

 Vector   18  Occ=0.000000D+00  E= 2.234058D-01

 Vector   19  Occ=0.000000D+00  E= 2.268974D-01

 Vector   20  Occ=0.000000D+00  E= 2.583668D-01

 Vector   21  Occ=0.000000D+00  E= 2.826558D-01

 Vector   22  Occ=0.000000D+00  E= 3.049780D-01

 Vector   23  Occ=0.000000D+00  E= 3.082559D-01

 Vector   24  Occ=0.000000D+00  E= 4.310072D-01

 Vector   25  Occ=0.000000D+00  E= 4.737272D-01

 Vector   26  Occ=0.000000D+00  E= 4.747442D-01

 Vector   27  Occ=0.000000D+00  E= 4.769034D-01

 Vector   28  Occ=0.000000D+00  E= 7.434255D-01

 Vector   29  Occ=0.000000D+00  E= 9.394826D-01

 Vector   30  Occ=0.000000D+00  E= 9.424833D-01

 Vector   31  Occ=0.000000D+00  E= 9.589747D-01

 Vector   32  Occ=0.000000D+00  E= 9.687332D-01

 Vector   33  Occ=0.000000D+00  E= 9.724551D-01

 Vector   34  Occ=0.000000D+00  E= 1.093989D+00

 Vector   35  Occ=0.000000D+00  E= 1.099831D+00

 Vector   36  Occ=0.000000D+00  E= 1.198305D+00

 Vector   37  Occ=0.000000D+00  E= 1.342082D+00

 Vector   38  Occ=0.000000D+00  E= 1.566346D+00

 Vector   39  Occ=0.000000D+00  E= 1.570576D+00

 Vector   40  Occ=0.000000D+00  E= 1.591452D+00

 Vector   41  Occ=0.000000D+00  E= 1.596736D+00

 Vector   42  Occ=0.000000D+00  E= 1.630883D+00

 Vector   43  Occ=0.000000D+00  E= 1.633166D+00

 Vector   44  Occ=0.000000D+00  E= 1.900759D+00

 Vector   45  Occ=0.000000D+00  E= 2.062584D+00

 Vector   46  Occ=0.000000D+00  E= 2.068986D+00

 Vector   47  Occ=0.000000D+00  E= 2.095703D+00

 Vector   48  Occ=0.000000D+00  E= 2.542808D+00

 Vector   49  Occ=0.000000D+00  E= 2.978270D+00

 Vector   50  Occ=0.000000D+00  E= 3.005823D+00

 Vector   51  Occ=0.000000D+00  E= 3.119093D+00

 Vector   52  Occ=0.000000D+00  E= 3.119562D+00

 Vector   53  Occ=0.000000D+00  E= 3.137307D+00

 Vector   54  Occ=0.000000D+00  E= 3.629839D+00

 Vector   55  Occ=0.000000D+00  E= 3.640183D+00

 Vector   56  Occ=0.000000D+00  E= 3.833035D+00

 Vector   57  Occ=0.000000D+00  E= 4.209906D+00

 Vector   58  Occ=0.000000D+00  E= 4.553281D+00

 Vector   59  Occ=0.000000D+00  E= 4.554585D+00

 Vector   60  Occ=0.000000D+00  E= 4.579239D+00

 Vector   61  Occ=0.000000D+00  E= 4.810407D+00

 Vector   62  Occ=0.000000D+00  E= 4.824793D+00

 Vector   63  Occ=0.000000D+00  E= 5.745942D+00

 Vector   64  Occ=0.000000D+00  E= 8.656933D+00

 Vector   65  Occ=0.000000D+00  E= 8.665280D+00

 Vector   66  Occ=0.000000D+00  E= 9.451145D+00

 Vector   67  Occ=0.000000D+00  E= 1.016239D+01

 Vector   68  Occ=0.000000D+00  E= 1.844629D+01

 Vector   69  Occ=0.000000D+00  E= 1.845505D+01

 Vector   70  Occ=0.000000D+00  E= 1.865099D+01

 Vector   71  Occ=0.000000D+00  E= 2.488747D+01

 Vector   72  Occ=0.000000D+00  E= 2.191990D+02

     Multipole analysis of the density
     ---------------------------------

     L   x y z        total         alpha         beta         nuclear
     -   - - -        -----         -----         ----         -------
     0   0 0 0     -0.000000     -9.000000     -8.000000     17.000000

     1   1 0 0      0.000000      0.000000     -0.000000      0.000000
     1   0 1 0      0.000000      0.000000      0.000000      0.000000
     1   0 0 1      0.301480      0.176158      0.125321      0.000000

     2   2 0 0    -10.538916     -6.337704     -4.201212      0.000000
     2   1 1 0     -1.047506      0.051611     -1.099117      0.000000
     2   1 0 1      0.000000      0.000000      0.000000      0.000000
     2   0 2 0    -10.860131     -6.321878     -4.538252      0.000000
     2   0 1 1     -0.000000     -0.000000     -0.000000      0.000000

 Total times  cpu:        1.7s     wall:        2.6s
