 Output coordinates in angstroms (scale by  1.889725989 to convert to a.u.)

  No.       Tag          Charge          X              Y              Z
 ---- ---------------- ---------- -------------- -------------- --------------
    1 O                    8.0000     0.00000000     0.00000000    -0.10765556
    2 H                    1.0000     0.00000000     0.00000000     0.86124444

         Total DFT energy =      -75.771597691727

                    DFT Final Alpha Molecular Orbital Analysis
                    ------------------------------------------

 Vector    1  Occ=1.000000D+00  E=-1.896045D+01

 Vector   49  Occ=0.000000D+00  E= 6.249162D+00

 Vector   50  Occ=0.000000D+00  E= 6.473057D+00

 Vector   51  Occ=0.000000D+00  E= 7.215421D+00

 Vector   52  Occ=0.000000D+00  E= 8.376064D+00

 Vector   53  Occ=0.000000D+00  E= 8.384646D+00

 Vector   54  Occ=0.000000D+00  E= 9.665479D+00

 Vector   55  Occ=0.000000D+00  E= 1.409011D+01

 Vector   56  Occ=0.000000D+00  E= 1.409045D+01

 Vector   57  Occ=0.000000D+00  E= 1.442217D+01

 Vector   58  Occ=0.000000D+00  E= 1.448263D+01

 Vector   59  Occ=0.000000D+00  E= 1.540961D+01

 Vector   60  Occ=0.000000D+00  E= 1.625024D+01

 Vector   61  Occ=0.000000D+00  E= 1.631418D+01

 Vector   62  Occ=0.000000D+00  E= 1.665477D+01

 Vector   63  Occ=0.000000D+00  E= 1.908187D+01

 Vector   64  Occ=0.000000D+00  E= 6.108137D+01

 Vector    1  Occ=1.000000D+00  E=-1.893490D+01

 Vector    2  Occ=1.000000D+00  E=-8.962982D-01

 Vector    3  Occ=1.000000D+00  E=-4.128331D-01

 Vector    4  Occ=1.000000D+00  E=-2.762820D-01

 Vector    5  Occ=0.000000D+00  E=-2.192495D-01

 Vector    6  Occ=0.000000D+00  E=-1.556875D-02

 Vector    7  Occ=0.000000D+00  E= 1.213210D-01

 Vector    8  Occ=0.000000D+00  E= 1.470010D-01

 Vector    9  Occ=0.000000D+00  E= 1.471526D-01

 Vector   10  Occ=0.000000D+00  E= 1.596693D-01

 Vector   11  Occ=0.000000D+00  E= 1.996285D-01

 Vector   12  Occ=0.000000D+00  E= 3.531101D-01

 Vector   13  Occ=0.000000D+00  E= 3.548365D-01

 Vector   14  Occ=0.000000D+00  E= 4.298581D-01

 Vector   15  Occ=0.000000D+00  E= 6.481504D-01

 Vector   16  Occ=0.000000D+00  E= 7.531550D-01

 Vector   17  Occ=0.000000D+00  E= 7.567516D-01

 Vector   18  Occ=0.000000D+00  E= 8.647595D-01

 Vector   19  Occ=0.000000D+00  E= 9.273621D-01

 Vector   20  Occ=0.000000D+00  E= 9.316148D-01

 Vector   21  Occ=0.000000D+00  E= 9.415620D-01

 Vector   22  Occ=0.000000D+00  E= 1.009281D+00

 Vector   23  Occ=0.000000D+00  E= 1.034626D+00

 Vector   24  Occ=0.000000D+00  E= 1.401942D+00

 Vector   25  Occ=0.000000D+00  E= 1.795645D+00

 Vector   26  Occ=0.000000D+00  E= 1.797514D+00

 Vector   27  Occ=0.000000D+00  E= 1.840704D+00

 Vector   28  Occ=0.000000D+00  E= 2.519565D+00

 Vector   29  Occ=0.000000D+00  E= 2.816798D+00

 Vector   30  Occ=0.000000D+00  E= 2.983266D+00

 Vector   31  Occ=0.000000D+00  E= 2.984930D+00

 Vector   32  Occ=0.000000D+00  E= 3.082403D+00

 Vector   33  Occ=0.000000D+00  E= 3.086635D+00

 Vector   34  Occ=0.000000D+00  E= 3.351348D+00

 Vector   35  Occ=0.000000D+00  E= 3.359308D+00

 Vector   36  Occ=0.000000D+00  E= 3.566198D+00

 Vector   37  Occ=0.000000D+00  E= 4.078189D+00

 Vector   38  Occ=0.000000D+00  E= 4.078460D+00

 Vector   39  Occ=0.000000D+00  E= 4.205109D+00

 Vector   40  Occ=0.000000D+00  E= 4.489169D+00

 Vector   41  Occ=0.000000D+00  E= 4.716451D+00

 Vector   42  Occ=0.000000D+00  E= 4.717875D+00

 Vector   43  Occ=0.000000D+00  E= 5.033144D+00

 Vector   44  Occ=0.000000D+00  E= 5.035653D+00

 Vector   45  Occ=0.000000D+00  E= 5.302936D+00

 Vector   46  Occ=0.000000D+00  E= 5.309661D+00

 Vector   47  Occ=0.000000D+00  E= 5.932076D+00

 Vector   48  Occ=0.000000D+00  E= 6.273664D+00

 Vector   49  Occ=0.000000D+00  E= 6.291620D+00

 Vector   50  Occ=0.000000D+00  E= 6.519401D+00

 Vector   51  Occ=0.000000D+00  E= 7.275669D+00

 Vector   52  Occ=0.000000D+00  E= 8.445583D+00

 Vector   53  Occ=0.000000D+00  E= 8.456226D+00

 Vector   54  Occ=0.000000D+00  E= 9.762293D+00

 Vector   55  Occ=0.000000D+00  E= 1.424550D+01

 Vector   56  Occ=0.000000D+00  E= 1.425920D+01

 Vector   57  Occ=0.000000D+00  E= 1.456806D+01

 Vector   58  Occ=0.000000D+00  E= 1.457251D+01

 Vector   59  Occ=0.000000D+00  E= 1.551351D+01

 Vector   60  Occ=0.000000D+00  E= 1.634511D+01

 Vector   61  Occ=0.000000D+00  E= 1.636209D+01

 Vector   62  Occ=0.000000D+00  E= 1.671296D+01

 Vector   63  Occ=0.000000D+00  E= 1.919437D+01

 Vector   64  Occ=0.000000D+00  E= 6.114237D+01

     Multipole analysis of the density
     ---------------------------------

     L   x y z        total         alpha         beta         nuclear
     -   - - -        -----         -----         ----         -------
     0   0 0 0     -0.000000     -5.000000     -4.000000      9.000000

     1   1 0 0     -0.000000     -0.000000     -0.000000      0.000000
     1   0 1 0      0.000000      0.000000      0.000000      0.000000
     1   0 0 1      0.639480      0.403948      0.235532      0.000000

     2   2 0 0     -4.149852     -2.676906     -1.472946      0.000000
     2   1 1 0     -0.169510     -0.006945     -0.162565      0.000000
     2   1 0 1      0.000000      0.000000     -0.000000      0.000000
     2   0 2 0     -5.109628     -2.716226     -2.393401      0.000000
     2   0 1 1      0.000000      0.000000      0.000000      0.000000

 Total times  cpu:        4.6s     wall:        5.9s
