 Output coordinates in angstroms (scale by  1.889725989 to convert to a.u.)

  No.       Tag          Charge          X              Y              Z
 ---- ---------------- ---------- -------------- -------------- --------------
    1 C                    6.0000    -1.21149158     0.00796789     0.00041000
    2 O                    8.0000     1.29396842    -0.10869211     0.00013000
    3 H                    1.0000     0.00947842    -0.11802211     0.00280000
    4 H                    1.0000    -1.52553158    -0.23325211     1.01007000
    5 H                    1.0000    -1.43067158     1.03322789    -0.27808000
    6 H                    1.0000    -1.55271158    -0.71011211    -0.73770000
    7 H                    1.0000     1.41663842     0.84988789    -0.00059000

         Total DFT energy =     -116.313691525188

                    DFT Final Alpha Molecular Orbital Analysis
                    ------------------------------------------

 Vector    1  Occ=1.000000D+00  E=-1.890305D+01

 Vector  106  Occ=0.000000D+00  E= 3.336116D+00

 Vector  107  Occ=0.000000D+00  E= 3.452167D+00

 Vector  108  Occ=0.000000D+00  E= 3.489025D+00

 Vector  109  Occ=0.000000D+00  E= 3.509952D+00

 Vector  110  Occ=0.000000D+00  E= 3.545123D+00

 Vector  111  Occ=0.000000D+00  E= 3.635450D+00

 Vector  112  Occ=0.000000D+00  E= 3.668207D+00

 Vector  113  Occ=0.000000D+00  E= 3.880197D+00

 Vector  114  Occ=0.000000D+00  E= 3.905116D+00

 Vector  115  Occ=0.000000D+00  E= 3.913709D+00

 Vector  116  Occ=0.000000D+00  E= 4.120000D+00

 Vector  117  Occ=0.000000D+00  E= 4.149052D+00

 Vector  118  Occ=0.000000D+00  E= 4.212144D+00

 Vector  119  Occ=0.000000D+00  E= 4.220396D+00

 Vector  120  Occ=0.000000D+00  E= 4.277629D+00

 Vector  121  Occ=0.000000D+00  E= 4.364643D+00

 Vector  122  Occ=0.000000D+00  E= 4.501935D+00

 Vector  123  Occ=0.000000D+00  E= 4.510181D+00

 Vector  124  Occ=0.000000D+00  E= 4.588992D+00

 Vector  125  Occ=0.000000D+00  E= 4.644971D+00

 Vector  126  Occ=0.000000D+00  E= 4.716880D+00

 Vector  127  Occ=0.000000D+00  E= 4.834055D+00

 Vector  128  Occ=0.000000D+00  E= 4.852475D+00

 Vector  129  Occ=0.000000D+00  E= 4.882078D+00

 Vector  130  Occ=0.000000D+00  E= 4.899346D+00

 Vector  131  Occ=0.000000D+00  E= 4.928126D+00

 Vector  132  Occ=0.000000D+00  E= 5.049609D+00

 Vector  133  Occ=0.000000D+00  E= 5.062326D+00

 Vector  134  Occ=0.000000D+00  E= 5.113968D+00

 Vector  135  Occ=0.000000D+00  E= 5.122076D+00

 Vector  136  Occ=0.000000D+00  E= 5.275537D+00

 Vector  137  Occ=0.000000D+00  E= 5.391129D+00

 Vector  138  Occ=0.000000D+00  E= 5.583524D+00

 Vector  139  Occ=0.000000D+00  E= 5.768598D+00

 Vector  140  Occ=0.000000D+00  E= 5.917781D+00

 Vector  141  Occ=0.000000D+00  E= 5.943823D+00

 Vector  142  Occ=0.000000D+00  E= 6.108563D+00

 Vector  143  Occ=0.000000D+00  E= 6.333106D+00

 Vector  144  Occ=0.000000D+00  E= 6.433662D+00

 Vector  145  Occ=0.000000D+00  E= 6.726004D+00

 Vector  146  Occ=0.000000D+00  E= 7.189223D+00

 Vector  147  Occ=0.000000D+00  E= 7.270600D+00

 Vector  148  Occ=0.000000D+00  E= 7.281299D+00

 Vector  149  Occ=0.000000D+00  E= 7.509058D+00

 Vector  150  Occ=0.000000D+00  E= 7.541775D+00

 Vector  151  Occ=0.000000D+00  E= 7.725572D+00

 Vector  152  Occ=0.000000D+00  E= 7.806150D+00

 Vector  153  Occ=0.000000D+00  E= 8.494710D+00

 Vector  154  Occ=0.000000D+00  E= 8.636710D+00

 Vector  155  Occ=0.000000D+00  E= 8.672083D+00

 Vector  156  Occ=0.000000D+00  E= 8.685795D+00

 Vector  157  Occ=0.000000D+00  E= 8.707572D+00

 Vector  158  Occ=0.000000D+00  E= 8.758403D+00

 Vector  159  Occ=0.000000D+00  E= 8.789518D+00

 Vector  160  Occ=0.000000D+00  E= 8.948887D+00

 Vector  161  Occ=0.000000D+00  E= 9.058646D+00

 Vector  162  Occ=0.000000D+00  E= 9.115409D+00

 Vector  163  Occ=0.000000D+00  E= 9.271875D+00

 Vector  164  Occ=0.000000D+00  E= 9.297900D+00

 Vector  165  Occ=0.000000D+00  E= 9.425349D+00

 Vector  166  Occ=0.000000D+00  E= 9.669363D+00

 Vector  167  Occ=0.000000D+00  E= 9.866446D+00

 Vector  168  Occ=0.000000D+00  E= 1.003875D+01

 Vector  169  Occ=0.000000D+00  E= 1.007248D+01

 Vector  170  Occ=0.000000D+00  E= 1.019378D+01

 Vector  171  Occ=0.000000D+00  E= 1.043350D+01

 Vector  172  Occ=0.000000D+00  E= 1.049016D+01

 Vector  173  Occ=0.000000D+00  E= 1.053285D+01

 Vector  174  Occ=0.000000D+00  E= 1.086068D+01

 Vector  175  Occ=0.000000D+00  E= 1.441169D+01

 Vector  176  Occ=0.000000D+00  E= 1.459639D+01

 Vector  177  Occ=0.000000D+00  E= 1.461969D+01

 Vector  178  Occ=0.000000D+00  E= 1.491767D+01

 Vector  179  Occ=0.000000D+00  E= 1.562163D+01

 Vector  180  Occ=0.000000D+00  E= 1.644635D+01

 Vector  181  Occ=0.000000D+00  E= 1.662000D+01

 Vector  182  Occ=0.000000D+00  E= 1.691863D+01

 Vector  183  Occ=0.000000D+00  E= 1.948340D+01

 Vector  184  Occ=0.000000D+00  E= 2.914766D+01

 Vector  185  Occ=0.000000D+00  E= 6.117431D+01

     Multipole analysis of the density
     ---------------------------------

     L   x y z        total         alpha         beta         nuclear
     -   - - -        -----         -----         ----         -------
     0   0 0 0     -0.000000    -10.000000     -9.000000     19.000000

     1   1 0 0     -0.601221     -0.559033     -0.042188     -0.000000
     1   0 1 0      0.544663      0.331034      0.213629     -0.000000
     1   0 0 1      0.000151     -0.000467      0.000618     -0.000000

     2   2 0 0    -11.052028    -64.587592    -57.142577    110.678141
     2   1 1 0      1.806727      1.056394      0.750273      0.000060
     2   1 0 1      0.001032      0.000215      0.001035     -0.000218
     2   0 2 0     -9.626357     -9.379458     -9.022279      8.775380
     2   0 1 1      0.004758      0.000411      0.004335      0.000012

 Total times  cpu:       15.7s     wall:       17.9s
