 Output coordinates in angstroms (scale by  1.889725989 to convert to a.u.)

  No.       Tag          Charge          X              Y              Z
 ---- ---------------- ---------- -------------- -------------- --------------
    1 H                    1.0000     0.00000000     0.00000000    -0.86028600
    2 O                    8.0000     0.00000000     0.00000000     0.32902400
    3 H                    1.0000     0.00000000     0.00000000    -1.77190600

         Total DFT energy =      -76.274227989672

                    DFT Final Alpha Molecular Orbital Analysis
                    ------------------------------------------

 Vector    1  Occ=1.000000D+00  E=-1.898739D+01

 Vector    4  Occ=1.000000D+00  E=-2.790008D-01

 Vector    5  Occ=0.000000D+00  E=-2.139817D-01

 Vector    6  Occ=0.000000D+00  E=-1.853959D-01

 Vector    7  Occ=0.000000D+00  E= 3.269340D-02

 Vector    8  Occ=0.000000D+00  E= 4.155298D-02

 Vector    9  Occ=0.000000D+00  E= 1.350592D-01

 Vector   10  Occ=0.000000D+00  E= 1.468309D-01

 Vector   11  Occ=0.000000D+00  E= 1.732667D-01

 Vector   12  Occ=0.000000D+00  E= 1.943623D-01

 Vector   13  Occ=0.000000D+00  E= 2.477842D-01

 Vector   14  Occ=0.000000D+00  E= 2.685906D-01

 Vector   15  Occ=0.000000D+00  E= 2.694931D-01

 Vector   16  Occ=0.000000D+00  E= 3.812714D-01

 Vector   17  Occ=0.000000D+00  E= 4.710397D-01

 Vector   18  Occ=0.000000D+00  E= 5.073484D-01

 Vector   19  Occ=0.000000D+00  E= 5.106249D-01

 Vector   20  Occ=0.000000D+00  E= 7.523678D-01

 Vector   21  Occ=0.000000D+00  E= 7.561097D-01

 Vector   22  Occ=0.000000D+00  E= 7.566169D-01

 Vector   23  Occ=0.000000D+00  E= 8.755191D-01

 Vector   24  Occ=0.000000D+00  E= 9.203792D-01

 Vector   25  Occ=0.000000D+00  E= 9.320133D-01

 Vector   26  Occ=0.000000D+00  E= 9.560706D-01

 Vector   27  Occ=0.000000D+00  E= 1.082896D+00

 Vector   28  Occ=0.000000D+00  E= 1.129685D+00

 Vector   29  Occ=0.000000D+00  E= 1.149830D+00

 Vector   30  Occ=0.000000D+00  E= 1.460314D+00

 Vector   31  Occ=0.000000D+00  E= 1.580070D+00

 Vector   32  Occ=0.000000D+00  E= 1.582744D+00

 Vector   33  Occ=0.000000D+00  E= 1.923225D+00

 Vector   34  Occ=0.000000D+00  E= 2.023350D+00

 Vector   35  Occ=0.000000D+00  E= 2.025488D+00

 Vector   36  Occ=0.000000D+00  E= 2.266734D+00

 Vector   37  Occ=0.000000D+00  E= 2.634246D+00

 Vector   38  Occ=0.000000D+00  E= 2.736837D+00

 Vector   39  Occ=0.000000D+00  E= 2.737105D+00

 Vector   40  Occ=0.000000D+00  E= 2.837587D+00

 Vector   41  Occ=0.000000D+00  E= 2.985372D+00

 Vector   42  Occ=0.000000D+00  E= 3.196442D+00

 Vector   43  Occ=0.000000D+00  E= 3.201992D+00

 Vector   44  Occ=0.000000D+00  E= 3.324732D+00

 Vector   45  Occ=0.000000D+00  E= 3.333802D+00

 Vector   46  Occ=0.000000D+00  E= 3.434694D+00

 Vector   47  Occ=0.000000D+00  E= 3.435280D+00

 Vector   48  Occ=0.000000D+00  E= 3.575172D+00

 Vector   49  Occ=0.000000D+00  E= 3.577475D+00

 Vector   50  Occ=0.000000D+00  E= 3.845988D+00

 Vector   51  Occ=0.000000D+00  E= 4.439926D+00

 Vector   52  Occ=0.000000D+00  E= 4.452964D+00

 Vector   53  Occ=0.000000D+00  E= 4.455048D+00

 Vector   54  Occ=0.000000D+00  E= 4.812827D+00

 Vector   55  Occ=0.000000D+00  E= 4.868131D+00

 Vector   56  Occ=0.000000D+00  E= 4.879772D+00

 Vector   57  Occ=0.000000D+00  E= 4.971685D+00

 Vector   58  Occ=0.000000D+00  E= 5.037189D+00

 Vector   59  Occ=0.000000D+00  E= 5.040383D+00

 Vector   60  Occ=0.000000D+00  E= 5.134576D+00

 Vector   61  Occ=0.000000D+00  E= 5.144692D+00

 Vector   62  Occ=0.000000D+00  E= 5.750261D+00

 Vector   63  Occ=0.000000D+00  E= 6.204510D+00

 Vector   64  Occ=0.000000D+00  E= 6.221830D+00

 Vector   65  Occ=0.000000D+00  E= 6.778111D+00

 Vector   66  Occ=0.000000D+00  E= 7.195372D+00

 Vector   67  Occ=0.000000D+00  E= 8.665290D+00

 Vector   68  Occ=0.000000D+00  E= 8.670144D+00

 Vector   69  Occ=0.000000D+00  E= 8.830373D+00

 Vector   70  Occ=0.000000D+00  E= 8.832024D+00

 Vector   71  Occ=0.000000D+00  E= 9.178329D+00

 Vector   72  Occ=0.000000D+00  E= 9.973267D+00

 Vector   73  Occ=0.000000D+00  E= 1.038357D+01

 Vector   74  Occ=0.000000D+00  E= 1.426897D+01

 Vector   75  Occ=0.000000D+00  E= 1.428082D+01

 Vector   76  Occ=0.000000D+00  E= 1.445847D+01

 Vector   77  Occ=0.000000D+00  E= 1.446861D+01

 Vector   78  Occ=0.000000D+00  E= 1.536161D+01

 Vector   79  Occ=0.000000D+00  E= 1.635531D+01

 Vector   80  Occ=0.000000D+00  E= 1.638352D+01

 Vector   81  Occ=0.000000D+00  E= 1.674774D+01

 Vector   82  Occ=0.000000D+00  E= 1.923935D+01

 Vector   83  Occ=0.000000D+00  E= 6.114716D+01

     Multipole analysis of the density
     ---------------------------------

     L   x y z        total         alpha         beta         nuclear
     -   - - -        -----         -----         ----         -------
     0   0 0 0     -0.000000     -6.000000     -4.000000     10.000000

     1   1 0 0      0.000000      0.000000      0.000000      0.000000
     1   0 1 0     -0.000000     -0.000000      0.000000      0.000000
     1   0 0 1     -0.459344      0.215438     -0.674782      0.000000

     2   2 0 0     -5.666337     -3.425830     -2.240507      0.000000
     2   1 1 0     -0.485229     -0.018630     -0.466599      0.000000
     2   1 0 1     -0.000000     -0.000000      0.000000      0.000000
     2   0 2 0     -5.375288     -3.414655     -1.960633      0.000000
     2   0 1 1      0.000000      0.000000      0.000000      0.000000

 Total times  cpu:        2.5s     wall:        3.7s
