 Output coordinates in angstroms (scale by  1.889725989 to convert to a.u.)

  No.       Tag          Charge          X              Y              Z
 ---- ---------------- ---------- -------------- -------------- --------------
    1 H                    1.0000     1.26210000    -0.22009684     0.00000000
    2 S                   16.0000     0.00000000     0.22315316     0.00000000
    3 H                    1.0000    -0.50058000    -1.11544684     0.00000000
    4 H                    1.0000    -0.76152000    -2.23490684     0.00000000

         Total DFT energy =     -399.940975048158

                    DFT Final Alpha Molecular Orbital Analysis
                    ------------------------------------------

 Vector    1  Occ=1.000000D+00  E=-8.836400D+01

 Vector   31  Occ=0.000000D+00  E= 4.449279D-01

 Vector   32  Occ=0.000000D+00  E= 4.724288D-01

 Vector   33  Occ=0.000000D+00  E= 4.790171D-01

 Vector   34  Occ=0.000000D+00  E= 5.194336D-01

 Vector   35  Occ=0.000000D+00  E= 5.439017D-01

 Vector   36  Occ=0.000000D+00  E= 6.004703D-01

 Vector   37  Occ=0.000000D+00  E= 6.148453D-01

 Vector   38  Occ=0.000000D+00  E= 7.594118D-01

 Vector   39  Occ=0.000000D+00  E= 7.876638D-01

 Vector   40  Occ=0.000000D+00  E= 9.102202D-01

 Vector   41  Occ=0.000000D+00  E= 9.387935D-01

 Vector   42  Occ=0.000000D+00  E= 9.559643D-01

 Vector   43  Occ=0.000000D+00  E= 9.608033D-01

 Vector   44  Occ=0.000000D+00  E= 9.804432D-01

 Vector   45  Occ=0.000000D+00  E= 1.095528D+00

 Vector   46  Occ=0.000000D+00  E= 1.101704D+00

 Vector   47  Occ=0.000000D+00  E= 1.211700D+00

 Vector   48  Occ=0.000000D+00  E= 1.333143D+00

 Vector   49  Occ=0.000000D+00  E= 1.399700D+00

 Vector   50  Occ=0.000000D+00  E= 1.561880D+00

 Vector   51  Occ=0.000000D+00  E= 1.569218D+00

 Vector   52  Occ=0.000000D+00  E= 1.576039D+00

 Vector   53  Occ=0.000000D+00  E= 1.651655D+00

 Vector   54  Occ=0.000000D+00  E= 1.657684D+00

 Vector   55  Occ=0.000000D+00  E= 1.710714D+00

 Vector   56  Occ=0.000000D+00  E= 1.730563D+00

 Vector   57  Occ=0.000000D+00  E= 1.752848D+00

 Vector   58  Occ=0.000000D+00  E= 1.893779D+00

 Vector   59  Occ=0.000000D+00  E= 1.944041D+00

 Vector   60  Occ=0.000000D+00  E= 1.976232D+00

 Vector   61  Occ=0.000000D+00  E= 2.051031D+00

 Vector   62  Occ=0.000000D+00  E= 2.113800D+00

 Vector   63  Occ=0.000000D+00  E= 2.162813D+00

 Vector   64  Occ=0.000000D+00  E= 2.196927D+00

 Vector   65  Occ=0.000000D+00  E= 2.249936D+00

 Vector   66  Occ=0.000000D+00  E= 2.584761D+00

 Vector   67  Occ=0.000000D+00  E= 2.645671D+00

 Vector   68  Occ=0.000000D+00  E= 2.862267D+00

 Vector   69  Occ=0.000000D+00  E= 2.894753D+00

 Vector   70  Occ=0.000000D+00  E= 2.905706D+00

 Vector   71  Occ=0.000000D+00  E= 3.003159D+00

 Vector   72  Occ=0.000000D+00  E= 3.116223D+00

 Vector   73  Occ=0.000000D+00  E= 3.139797D+00

 Vector   74  Occ=0.000000D+00  E= 3.167692D+00

 Vector   75  Occ=0.000000D+00  E= 3.190002D+00

 Vector   76  Occ=0.000000D+00  E= 3.226320D+00

 Vector   77  Occ=0.000000D+00  E= 3.300762D+00

 Vector   78  Occ=0.000000D+00  E= 3.367580D+00

 Vector   79  Occ=0.000000D+00  E= 3.383312D+00

 Vector   80  Occ=0.000000D+00  E= 3.643831D+00

 Vector   81  Occ=0.000000D+00  E= 3.654548D+00

 Vector   82  Occ=0.000000D+00  E= 3.909315D+00

 Vector   83  Occ=0.000000D+00  E= 4.149827D+00

 Vector   84  Occ=0.000000D+00  E= 4.218244D+00

 Vector   85  Occ=0.000000D+00  E= 4.229791D+00

 Vector   86  Occ=0.000000D+00  E= 4.328932D+00

 Vector   87  Occ=0.000000D+00  E= 4.554247D+00

 Vector   88  Occ=0.000000D+00  E= 4.611690D+00

 Vector   89  Occ=0.000000D+00  E= 4.833096D+00

 Vector   90  Occ=0.000000D+00  E= 4.871165D+00

 Vector   91  Occ=0.000000D+00  E= 4.923455D+00

 Vector   92  Occ=0.000000D+00  E= 5.230658D+00

 Vector   93  Occ=0.000000D+00  E= 5.352641D+00

 Vector   94  Occ=0.000000D+00  E= 5.897455D+00

 Vector   95  Occ=0.000000D+00  E= 6.591617D+00

 Vector   96  Occ=0.000000D+00  E= 8.637739D+00

 Vector   97  Occ=0.000000D+00  E= 8.654209D+00

 Vector   98  Occ=0.000000D+00  E= 8.660525D+00

 Vector   99  Occ=0.000000D+00  E= 8.690056D+00

 Vector  100  Occ=0.000000D+00  E= 8.819783D+00

 Vector  101  Occ=0.000000D+00  E= 8.861700D+00

 Vector  102  Occ=0.000000D+00  E= 9.432365D+00

 Vector  103  Occ=0.000000D+00  E= 9.608321D+00

 Vector  104  Occ=0.000000D+00  E= 9.939843D+00

 Vector  105  Occ=0.000000D+00  E= 1.026662D+01

 Vector  106  Occ=0.000000D+00  E= 1.847758D+01

 Vector  107  Occ=0.000000D+00  E= 1.868347D+01

 Vector  108  Occ=0.000000D+00  E= 1.869122D+01

 Vector  109  Occ=0.000000D+00  E= 2.494512D+01

 Vector  110  Occ=0.000000D+00  E= 2.192924D+02

     Multipole analysis of the density
     ---------------------------------

     L   x y z        total         alpha         beta         nuclear
     -   - - -        -----         -----         ----         -------
     0   0 0 0     -0.000000    -10.000000     -9.000000     19.000000

     1   1 0 0      0.185669      0.564782     -0.379113     -0.000000
     1   0 1 0     -0.293109      1.240131     -1.533240      0.000000
     1   0 0 1      0.000000     -0.000000      0.000000      0.000000

     2   2 0 0    -10.316737    -10.717116     -8.253701      8.654080
     2   1 1 0      0.187810     -5.871501     -1.020368      7.079679
     2   1 0 1      0.000000     -0.000000      0.000000      0.000000
     2   0 2 0    -11.203301    -25.778071    -10.723472     25.298242
     2   0 1 1      0.000000      0.000000     -0.000000      0.000000

 Total times  cpu:        3.4s     wall:        5.0s
