 Output coordinates in angstroms (scale by  1.889725989 to convert to a.u.)

  No.       Tag          Charge          X              Y              Z
 ---- ---------------- ---------- -------------- -------------- --------------
    1 C                    6.0000    -0.51343561     1.65010179     0.00000000
    2 C                    6.0000     0.25664037     2.58191431     0.00000000
    3 H                    1.0000    -1.18390607     0.82061001     0.00000000
    4 H                    1.0000     0.92992104     3.40835068     0.00000000
    5 C                    6.0000     0.51343561    -1.65010179     0.00000000
    6 C                    6.0000    -0.25664037    -2.58191431     0.00000000
    7 H                    1.0000     1.18390607    -0.82061001     0.00000000
    8 H                    1.0000    -0.92992104    -3.40835068     0.00000000

         Total DFT energy =     -154.744257401782

                       DFT Final Molecular Orbital Analysis
                       ------------------------------------

 Vector    1  Occ=2.000000D+00  E=-9.998037D+00  Symmetry=bu

 Vector  173  Occ=0.000000D+00  E= 4.225060D+00  Symmetry=au

 Vector  174  Occ=0.000000D+00  E= 4.225438D+00  Symmetry=ag

 Vector  175  Occ=0.000000D+00  E= 4.238089D+00  Symmetry=bu

 Vector  176  Occ=0.000000D+00  E= 4.253866D+00  Symmetry=ag

 Vector  177  Occ=0.000000D+00  E= 4.323644D+00  Symmetry=au

 Vector  178  Occ=0.000000D+00  E= 4.324542D+00  Symmetry=bg

 Vector  179  Occ=0.000000D+00  E= 4.332547D+00  Symmetry=bu

 Vector  180  Occ=0.000000D+00  E= 4.336020D+00  Symmetry=ag

 Vector  181  Occ=0.000000D+00  E= 4.704051D+00  Symmetry=bu

 Vector  182  Occ=0.000000D+00  E= 4.732712D+00  Symmetry=ag

 Vector  183  Occ=0.000000D+00  E= 4.878779D+00  Symmetry=bu

 Vector  184  Occ=0.000000D+00  E= 4.893344D+00  Symmetry=ag

 Vector  185  Occ=0.000000D+00  E= 4.956281D+00  Symmetry=au

 Vector  186  Occ=0.000000D+00  E= 4.956667D+00  Symmetry=bg

 Vector  187  Occ=0.000000D+00  E= 4.974199D+00  Symmetry=bu

 Vector  188  Occ=0.000000D+00  E= 4.975360D+00  Symmetry=ag

 Vector  189  Occ=0.000000D+00  E= 5.250462D+00  Symmetry=ag

 Vector  190  Occ=0.000000D+00  E= 5.270315D+00  Symmetry=bu

 Vector  191  Occ=0.000000D+00  E= 6.355389D+00  Symmetry=bu

 Vector  192  Occ=0.000000D+00  E= 6.382944D+00  Symmetry=ag

 Vector  193  Occ=0.000000D+00  E= 6.449987D+00  Symmetry=bu

 Vector  194  Occ=0.000000D+00  E= 6.453696D+00  Symmetry=bg

 Vector  195  Occ=0.000000D+00  E= 6.457803D+00  Symmetry=au

 Vector  196  Occ=0.000000D+00  E= 6.472510D+00  Symmetry=ag

 Vector  197  Occ=0.000000D+00  E= 6.936539D+00  Symmetry=au

 Vector  198  Occ=0.000000D+00  E= 6.956666D+00  Symmetry=bg

 Vector  199  Occ=0.000000D+00  E= 6.966616D+00  Symmetry=ag

 Vector  200  Occ=0.000000D+00  E= 6.986035D+00  Symmetry=bu

 Vector  201  Occ=0.000000D+00  E= 7.061020D+00  Symmetry=au

 Vector  202  Occ=0.000000D+00  E= 7.084266D+00  Symmetry=ag

 Vector  203  Occ=0.000000D+00  E= 7.087256D+00  Symmetry=bg

 Vector  204  Occ=0.000000D+00  E= 7.089263D+00  Symmetry=bu

 Vector  205  Occ=0.000000D+00  E= 7.256778D+00  Symmetry=au

 Vector  206  Occ=0.000000D+00  E= 7.265510D+00  Symmetry=ag

 Vector  207  Occ=0.000000D+00  E= 7.268897D+00  Symmetry=bg

 Vector  208  Occ=0.000000D+00  E= 7.287016D+00  Symmetry=bu

 Vector  209  Occ=0.000000D+00  E= 7.336157D+00  Symmetry=au

 Vector  210  Occ=0.000000D+00  E= 7.339107D+00  Symmetry=bg

 Vector  211  Occ=0.000000D+00  E= 7.367091D+00  Symmetry=ag

 Vector  212  Occ=0.000000D+00  E= 7.383646D+00  Symmetry=bu

 Vector  213  Occ=0.000000D+00  E= 7.662905D+00  Symmetry=ag

 Vector  214  Occ=0.000000D+00  E= 7.668080D+00  Symmetry=bu

 Vector  215  Occ=0.000000D+00  E= 7.719229D+00  Symmetry=ag

 Vector  216  Occ=0.000000D+00  E= 7.762053D+00  Symmetry=bu

 Vector  217  Occ=0.000000D+00  E= 8.172590D+00  Symmetry=au

 Vector  218  Occ=0.000000D+00  E= 8.262886D+00  Symmetry=bg

 Vector  219  Occ=0.000000D+00  E= 8.293315D+00  Symmetry=ag

 Vector  220  Occ=0.000000D+00  E= 8.522033D+00  Symmetry=bu

 Vector  221  Occ=0.000000D+00  E= 8.650363D+00  Symmetry=ag

 Vector  222  Occ=0.000000D+00  E= 8.654160D+00  Symmetry=bu

 Vector  223  Occ=0.000000D+00  E= 8.686154D+00  Symmetry=au

 Vector  224  Occ=0.000000D+00  E= 8.695440D+00  Symmetry=bg

 Vector  225  Occ=0.000000D+00  E= 8.762877D+00  Symmetry=ag

 Vector  226  Occ=0.000000D+00  E= 8.802991D+00  Symmetry=bg

 Vector  227  Occ=0.000000D+00  E= 8.817619D+00  Symmetry=au

 Vector  228  Occ=0.000000D+00  E= 8.818921D+00  Symmetry=bu

 Vector  229  Occ=0.000000D+00  E= 8.878627D+00  Symmetry=bu

 Vector  230  Occ=0.000000D+00  E= 8.909420D+00  Symmetry=ag

 Vector  231  Occ=0.000000D+00  E= 9.143727D+00  Symmetry=au

 Vector  232  Occ=0.000000D+00  E= 9.161406D+00  Symmetry=bg

 Vector  233  Occ=0.000000D+00  E= 9.216543D+00  Symmetry=bu

 Vector  234  Occ=0.000000D+00  E= 9.223449D+00  Symmetry=ag

 Vector  235  Occ=0.000000D+00  E= 9.269729D+00  Symmetry=ag

 Vector  236  Occ=0.000000D+00  E= 9.340613D+00  Symmetry=bu

 Vector  237  Occ=0.000000D+00  E= 9.434270D+00  Symmetry=ag

 Vector  238  Occ=0.000000D+00  E= 9.483693D+00  Symmetry=bu

 Vector  239  Occ=0.000000D+00  E= 1.019852D+01  Symmetry=ag

 Vector  240  Occ=0.000000D+00  E= 1.022010D+01  Symmetry=bu

 Vector  241  Occ=0.000000D+00  E= 1.033480D+01  Symmetry=bu

 Vector  242  Occ=0.000000D+00  E= 1.033653D+01  Symmetry=ag

 Vector  243  Occ=0.000000D+00  E= 1.037271D+01  Symmetry=ag

 Vector  244  Occ=0.000000D+00  E= 1.039900D+01  Symmetry=bu

 Vector  245  Occ=0.000000D+00  E= 1.228804D+01  Symmetry=ag

 Vector  246  Occ=0.000000D+00  E= 1.233903D+01  Symmetry=bu

 Vector  247  Occ=0.000000D+00  E= 1.301352D+01  Symmetry=bu

 Vector  248  Occ=0.000000D+00  E= 1.301959D+01  Symmetry=ag

 Vector  249  Occ=0.000000D+00  E= 2.897831D+01  Symmetry=ag

 Vector  250  Occ=0.000000D+00  E= 2.897883D+01  Symmetry=bu

 Vector  251  Occ=0.000000D+00  E= 2.931878D+01  Symmetry=ag

 Vector  252  Occ=0.000000D+00  E= 2.931972D+01  Symmetry=bu

     Multipole analysis of the density
     ---------------------------------

     L   x y z        total         alpha         beta         nuclear
     -   - - -        -----         -----         ----         -------
     0   0 0 0     -0.000000    -14.000000    -14.000000     28.000000

     1   1 0 0      0.000000      0.000000      0.000000     -0.000000
     1   0 1 0      0.000000      0.000000      0.000000     -0.000000
     1   0 0 1      0.000000      0.000000      0.000000      0.000000

     2   2 0 0    -16.357095    -23.331535    -23.331535     30.305974
     2   1 1 0      4.585066     -1.601307     -1.601307      7.787680
     2   1 0 1     -0.000000     -0.000000     -0.000000      0.000000
     2   0 2 0    -14.543821   -252.336055   -252.336055    490.128288
     2   0 1 1     -0.000000     -0.000000     -0.000000      0.000000

 Total times  cpu:        5.9s     wall:        7.8s
