 Output coordinates in angstroms (scale by  1.889725989 to convert to a.u.)

  No.       Tag          Charge          X              Y              Z
 ---- ---------------- ---------- -------------- -------------- --------------
    1 C                    6.0000    -0.00096370    -0.60419923     0.00000000
    2 C                    6.0000     0.00096370     0.60419923     0.00000000
    3 H                    1.0000     0.00415110    -1.67015375     0.00000000
    4 H                    1.0000    -0.00415110     1.67015375     0.00000000

         Total DFT energy =      -77.371622843107

                       DFT Final Molecular Orbital Analysis
                       ------------------------------------

 Vector    1  Occ=2.000000D+00  E=-9.997260D+00  Symmetry=ag

 Vector   47  Occ=0.000000D+00  E= 1.249317D+00  Symmetry=ag

 Vector   48  Occ=0.000000D+00  E= 1.297217D+00  Symmetry=bu

 Vector   49  Occ=0.000000D+00  E= 1.374233D+00  Symmetry=au

 Vector   50  Occ=0.000000D+00  E= 1.374262D+00  Symmetry=bu

 Vector   51  Occ=0.000000D+00  E= 1.437923D+00  Symmetry=ag

 Vector   52  Occ=0.000000D+00  E= 1.437923D+00  Symmetry=bg

 Vector   53  Occ=0.000000D+00  E= 1.685042D+00  Symmetry=ag

 Vector   54  Occ=0.000000D+00  E= 1.685058D+00  Symmetry=bg

 Vector   55  Occ=0.000000D+00  E= 1.739568D+00  Symmetry=bu

 Vector   56  Occ=0.000000D+00  E= 1.739568D+00  Symmetry=au

 Vector   57  Occ=0.000000D+00  E= 2.025648D+00  Symmetry=ag

 Vector   58  Occ=0.000000D+00  E= 2.030088D+00  Symmetry=bu

 Vector   59  Occ=0.000000D+00  E= 2.030125D+00  Symmetry=au

 Vector   60  Occ=0.000000D+00  E= 2.155609D+00  Symmetry=bu

 Vector   61  Occ=0.000000D+00  E= 2.231073D+00  Symmetry=ag

 Vector   62  Occ=0.000000D+00  E= 2.493029D+00  Symmetry=ag

 Vector   63  Occ=0.000000D+00  E= 2.493029D+00  Symmetry=bg

 Vector   64  Occ=0.000000D+00  E= 2.541512D+00  Symmetry=ag

 Vector   65  Occ=0.000000D+00  E= 2.541526D+00  Symmetry=bg

 Vector   66  Occ=0.000000D+00  E= 2.578793D+00  Symmetry=bu

 Vector   67  Occ=0.000000D+00  E= 2.648143D+00  Symmetry=au

 Vector   68  Occ=0.000000D+00  E= 2.648275D+00  Symmetry=bu

 Vector   69  Occ=0.000000D+00  E= 2.648276D+00  Symmetry=au

 Vector   70  Occ=0.000000D+00  E= 2.648363D+00  Symmetry=bu

 Vector   71  Occ=0.000000D+00  E= 2.911474D+00  Symmetry=ag

 Vector   72  Occ=0.000000D+00  E= 2.911480D+00  Symmetry=bg

 Vector   73  Occ=0.000000D+00  E= 2.933848D+00  Symmetry=ag

 Vector   74  Occ=0.000000D+00  E= 2.981171D+00  Symmetry=au

 Vector   75  Occ=0.000000D+00  E= 2.981171D+00  Symmetry=bu

 Vector   76  Occ=0.000000D+00  E= 3.058023D+00  Symmetry=ag

 Vector   77  Occ=0.000000D+00  E= 3.058023D+00  Symmetry=bg

 Vector   78  Occ=0.000000D+00  E= 3.070578D+00  Symmetry=ag

 Vector   79  Occ=0.000000D+00  E= 3.207167D+00  Symmetry=bu

 Vector   80  Occ=0.000000D+00  E= 3.367344D+00  Symmetry=bu

 Vector   81  Occ=0.000000D+00  E= 3.471486D+00  Symmetry=ag

 Vector   82  Occ=0.000000D+00  E= 3.471486D+00  Symmetry=bg

 Vector   83  Occ=0.000000D+00  E= 3.492355D+00  Symmetry=bu

 Vector   84  Occ=0.000000D+00  E= 3.492369D+00  Symmetry=au

 Vector   85  Occ=0.000000D+00  E= 3.793652D+00  Symmetry=ag

 Vector   86  Occ=0.000000D+00  E= 4.226025D+00  Symmetry=au

 Vector   87  Occ=0.000000D+00  E= 4.226025D+00  Symmetry=bu

 Vector   88  Occ=0.000000D+00  E= 4.231921D+00  Symmetry=bu

 Vector   89  Occ=0.000000D+00  E= 4.324467D+00  Symmetry=ag

 Vector   90  Occ=0.000000D+00  E= 4.324487D+00  Symmetry=bg

 Vector   91  Occ=0.000000D+00  E= 4.692059D+00  Symmetry=ag

 Vector   92  Occ=0.000000D+00  E= 4.857450D+00  Symmetry=bu

 Vector   93  Occ=0.000000D+00  E= 4.955977D+00  Symmetry=au

 Vector   94  Occ=0.000000D+00  E= 4.956172D+00  Symmetry=bu

 Vector   95  Occ=0.000000D+00  E= 5.248989D+00  Symmetry=ag

 Vector   96  Occ=0.000000D+00  E= 6.351898D+00  Symmetry=bu

 Vector   97  Occ=0.000000D+00  E= 6.456849D+00  Symmetry=ag

 Vector   98  Occ=0.000000D+00  E= 6.457560D+00  Symmetry=bg

 Vector   99  Occ=0.000000D+00  E= 6.940347D+00  Symmetry=bg

 Vector  100  Occ=0.000000D+00  E= 6.940349D+00  Symmetry=ag

 Vector  101  Occ=0.000000D+00  E= 7.067800D+00  Symmetry=au

 Vector  102  Occ=0.000000D+00  E= 7.067802D+00  Symmetry=bu

 Vector  103  Occ=0.000000D+00  E= 7.262274D+00  Symmetry=bu

 Vector  104  Occ=0.000000D+00  E= 7.262418D+00  Symmetry=au

 Vector  105  Occ=0.000000D+00  E= 7.333482D+00  Symmetry=ag

 Vector  106  Occ=0.000000D+00  E= 7.333516D+00  Symmetry=bg

 Vector  107  Occ=0.000000D+00  E= 7.650886D+00  Symmetry=bu

 Vector  108  Occ=0.000000D+00  E= 7.718407D+00  Symmetry=ag

 Vector  109  Occ=0.000000D+00  E= 8.201251D+00  Symmetry=au

 Vector  110  Occ=0.000000D+00  E= 8.201351D+00  Symmetry=bu

 Vector  111  Occ=0.000000D+00  E= 8.622916D+00  Symmetry=ag

 Vector  112  Occ=0.000000D+00  E= 8.682946D+00  Symmetry=bg

 Vector  113  Occ=0.000000D+00  E= 8.682950D+00  Symmetry=ag

 Vector  114  Occ=0.000000D+00  E= 8.804374D+00  Symmetry=au

 Vector  115  Occ=0.000000D+00  E= 8.804437D+00  Symmetry=bu

 Vector  116  Occ=0.000000D+00  E= 9.139037D+00  Symmetry=bg

 Vector  117  Occ=0.000000D+00  E= 9.139041D+00  Symmetry=ag

 Vector  118  Occ=0.000000D+00  E= 9.214343D+00  Symmetry=bu

 Vector  119  Occ=0.000000D+00  E= 9.395865D+00  Symmetry=ag

 Vector  120  Occ=0.000000D+00  E= 1.019286D+01  Symmetry=bu

 Vector  121  Occ=0.000000D+00  E= 1.033758D+01  Symmetry=bu

 Vector  122  Occ=0.000000D+00  E= 1.035589D+01  Symmetry=ag

 Vector  123  Occ=0.000000D+00  E= 1.230356D+01  Symmetry=bu

 Vector  124  Occ=0.000000D+00  E= 1.300922D+01  Symmetry=ag

 Vector  125  Occ=0.000000D+00  E= 2.897927D+01  Symmetry=bu

 Vector  126  Occ=0.000000D+00  E= 2.932056D+01  Symmetry=ag

     Multipole analysis of the density
     ---------------------------------

     L   x y z        total         alpha         beta         nuclear
     -   - - -        -----         -----         ----         -------
     0   0 0 0     -0.000000     -7.000000     -7.000000     14.000000

     1   1 0 0     -0.000000     -0.000000     -0.000000      0.000000
     1   0 1 0      0.000000      0.000000      0.000000      0.000000
     1   0 0 1     -0.000000     -0.000000     -0.000000      0.000000

     2   2 0 0    -10.184242     -5.092202     -5.092202      0.000163
     2   1 1 0     -0.013481      0.005542      0.005542     -0.024564
     2   1 0 1      0.000000      0.000000      0.000000      0.000000
     2   0 2 0     -5.259253    -20.412648    -20.412648     35.566042
     2   0 1 1     -0.000000     -0.000000     -0.000000      0.000000

 Total times  cpu:        2.5s     wall:        3.6s
