 Output coordinates in angstroms (scale by  1.889725989 to convert to a.u.)

  No.       Tag          Charge          X              Y              Z
 ---- ---------------- ---------- -------------- -------------- --------------
    1 C                    6.0000     0.00000000     0.66808000     0.00000000
    2 C                    6.0000     0.00000000    -0.66808000     0.00000000
    3 H                    1.0000     0.92453000     1.23492000     0.00000000
    4 H                    1.0000    -0.92453000     1.23492000     0.00000000
    5 H                    1.0000     0.92453000    -1.23492000     0.00000000
    6 H                    1.0000    -0.92453000    -1.23492000     0.00000000

         Total DFT energy =      -78.631310609085

                       DFT Final Molecular Orbital Analysis
                       ------------------------------------

 Vector    1  Occ=2.000000D+00  E=-9.988035D+00  Symmetry=ag

 Vector   87  Occ=0.000000D+00  E= 2.690844D+00  Symmetry=ag

 Vector   88  Occ=0.000000D+00  E= 2.724044D+00  Symmetry=b2u

 Vector   89  Occ=0.000000D+00  E= 2.809254D+00  Symmetry=b1u

 Vector   90  Occ=0.000000D+00  E= 2.820628D+00  Symmetry=b3g

 Vector   91  Occ=0.000000D+00  E= 2.846635D+00  Symmetry=b1g

 Vector   92  Occ=0.000000D+00  E= 2.880200D+00  Symmetry=ag

 Vector   93  Occ=0.000000D+00  E= 2.918009D+00  Symmetry=b2g

 Vector   94  Occ=0.000000D+00  E= 2.987718D+00  Symmetry=au

 Vector   95  Occ=0.000000D+00  E= 3.014108D+00  Symmetry=b1g

 Vector   96  Occ=0.000000D+00  E= 3.071096D+00  Symmetry=b1u

 Vector   97  Occ=0.000000D+00  E= 3.111417D+00  Symmetry=b2u

 Vector   98  Occ=0.000000D+00  E= 3.122113D+00  Symmetry=b3g

 Vector   99  Occ=0.000000D+00  E= 3.176175D+00  Symmetry=ag

 Vector  100  Occ=0.000000D+00  E= 3.180026D+00  Symmetry=b2u

 Vector  101  Occ=0.000000D+00  E= 3.258790D+00  Symmetry=b2g

 Vector  102  Occ=0.000000D+00  E= 3.348531D+00  Symmetry=ag

 Vector  103  Occ=0.000000D+00  E= 3.384143D+00  Symmetry=b3u

 Vector  104  Occ=0.000000D+00  E= 3.585947D+00  Symmetry=b2u

 Vector  105  Occ=0.000000D+00  E= 3.621152D+00  Symmetry=b3u

 Vector  106  Occ=0.000000D+00  E= 3.623802D+00  Symmetry=b1g

 Vector  107  Occ=0.000000D+00  E= 3.704112D+00  Symmetry=b3g

 Vector  108  Occ=0.000000D+00  E= 3.834377D+00  Symmetry=b1u

 Vector  109  Occ=0.000000D+00  E= 3.839570D+00  Symmetry=b2u

 Vector  110  Occ=0.000000D+00  E= 3.926146D+00  Symmetry=au

 Vector  111  Occ=0.000000D+00  E= 3.993798D+00  Symmetry=ag

 Vector  112  Occ=0.000000D+00  E= 4.163786D+00  Symmetry=b1g

 Vector  113  Occ=0.000000D+00  E= 4.213504D+00  Symmetry=b3u

 Vector  114  Occ=0.000000D+00  E= 4.447794D+00  Symmetry=b1u

 Vector  115  Occ=0.000000D+00  E= 4.452728D+00  Symmetry=ag

 Vector  116  Occ=0.000000D+00  E= 4.560546D+00  Symmetry=ag

 Vector  117  Occ=0.000000D+00  E= 4.571579D+00  Symmetry=b3u

 Vector  118  Occ=0.000000D+00  E= 4.579117D+00  Symmetry=b2u

 Vector  119  Occ=0.000000D+00  E= 4.601534D+00  Symmetry=b3g

 Vector  120  Occ=0.000000D+00  E= 4.607005D+00  Symmetry=b1g

 Vector  121  Occ=0.000000D+00  E= 4.690962D+00  Symmetry=b2g

 Vector  122  Occ=0.000000D+00  E= 4.880779D+00  Symmetry=b1g

 Vector  123  Occ=0.000000D+00  E= 4.895005D+00  Symmetry=b2u

 Vector  124  Occ=0.000000D+00  E= 4.963879D+00  Symmetry=b3g

 Vector  125  Occ=0.000000D+00  E= 5.019125D+00  Symmetry=au

 Vector  126  Occ=0.000000D+00  E= 5.044884D+00  Symmetry=ag

 Vector  127  Occ=0.000000D+00  E= 5.202433D+00  Symmetry=b3u

 Vector  128  Occ=0.000000D+00  E= 5.302571D+00  Symmetry=b2u

 Vector  129  Occ=0.000000D+00  E= 5.932696D+00  Symmetry=b2u

 Vector  130  Occ=0.000000D+00  E= 6.135366D+00  Symmetry=b1g

 Vector  131  Occ=0.000000D+00  E= 6.889502D+00  Symmetry=b3u

 Vector  132  Occ=0.000000D+00  E= 7.150624D+00  Symmetry=b2g

 Vector  133  Occ=0.000000D+00  E= 7.165068D+00  Symmetry=b1u

 Vector  134  Occ=0.000000D+00  E= 7.283685D+00  Symmetry=au

 Vector  135  Occ=0.000000D+00  E= 7.354934D+00  Symmetry=ag

 Vector  136  Occ=0.000000D+00  E= 7.528095D+00  Symmetry=b3g

 Vector  137  Occ=0.000000D+00  E= 7.663050D+00  Symmetry=b2u

 Vector  138  Occ=0.000000D+00  E= 7.693380D+00  Symmetry=b1g

 Vector  139  Occ=0.000000D+00  E= 8.112657D+00  Symmetry=b1u

 Vector  140  Occ=0.000000D+00  E= 8.130221D+00  Symmetry=b3u

 Vector  141  Occ=0.000000D+00  E= 8.173833D+00  Symmetry=ag

 Vector  142  Occ=0.000000D+00  E= 8.334071D+00  Symmetry=ag

 Vector  143  Occ=0.000000D+00  E= 8.541258D+00  Symmetry=b2u

 Vector  144  Occ=0.000000D+00  E= 8.582673D+00  Symmetry=b3g

 Vector  145  Occ=0.000000D+00  E= 8.707181D+00  Symmetry=b3u

 Vector  146  Occ=0.000000D+00  E= 8.768705D+00  Symmetry=b2g

 Vector  147  Occ=0.000000D+00  E= 8.778110D+00  Symmetry=ag

 Vector  148  Occ=0.000000D+00  E= 8.780791D+00  Symmetry=au

 Vector  149  Occ=0.000000D+00  E= 8.831903D+00  Symmetry=b1g

 Vector  150  Occ=0.000000D+00  E= 8.904237D+00  Symmetry=b1u

 Vector  151  Occ=0.000000D+00  E= 8.908388D+00  Symmetry=b2u

 Vector  152  Occ=0.000000D+00  E= 9.256984D+00  Symmetry=b1g

 Vector  153  Occ=0.000000D+00  E= 9.262019D+00  Symmetry=b3g

 Vector  154  Occ=0.000000D+00  E= 9.262385D+00  Symmetry=b2u

 Vector  155  Occ=0.000000D+00  E= 9.336521D+00  Symmetry=ag

 Vector  156  Occ=0.000000D+00  E= 9.596049D+00  Symmetry=b3u

 Vector  157  Occ=0.000000D+00  E= 9.679385D+00  Symmetry=ag

 Vector  158  Occ=0.000000D+00  E= 9.745083D+00  Symmetry=b2u

 Vector  159  Occ=0.000000D+00  E= 1.011033D+01  Symmetry=b3u

 Vector  160  Occ=0.000000D+00  E= 1.021535D+01  Symmetry=b1g

 Vector  161  Occ=0.000000D+00  E= 1.037453D+01  Symmetry=ag

 Vector  162  Occ=0.000000D+00  E= 1.043556D+01  Symmetry=b2u

 Vector  163  Occ=0.000000D+00  E= 1.061235D+01  Symmetry=b2u

 Vector  164  Occ=0.000000D+00  E= 1.097508D+01  Symmetry=b1g

 Vector  165  Occ=0.000000D+00  E= 2.918918D+01  Symmetry=ag

 Vector  166  Occ=0.000000D+00  E= 2.919894D+01  Symmetry=b2u

     Multipole analysis of the density
     ---------------------------------

     L   x y z        total         alpha         beta         nuclear
     -   - - -        -----         -----         ----         -------
     0   0 0 0     -0.000000     -8.000000     -8.000000     16.000000

     1   1 0 0      0.000000      0.000000      0.000000      0.000000
     1   0 1 0      0.000000      0.000000      0.000000      0.000000
     1   0 0 1     -0.000000     -0.000000     -0.000000      0.000000

     2   2 0 0     -9.223644    -10.716597    -10.716597     12.209551
     2   1 1 0     -0.000000     -0.000000     -0.000000      0.000000
     2   1 0 1      0.000000      0.000000      0.000000      0.000000
     2   0 2 0     -9.182310    -25.046354    -25.046354     40.910399
     2   0 1 1      0.000000      0.000000      0.000000      0.000000

 Total times  cpu:        3.7s     wall:        5.7s
